       0           0         100     17.0237           0     316.215     316.215   -4.21885e-15    1.26565e-14    1.26565e-14
     500           1     100.043    -9.27041    -860.774      316.35    -544.424    3.61655e-14    5.05151e-15    5.05151e-15
    1000           2     99.9529    -0.73983    -857.657     316.066    -541.591    4.66294e-14    7.22478e-14    7.22478e-14
    1500           3     99.8289    -15.3465    -857.986     315.674    -542.312    4.11893e-14    2.10942e-14    2.10942e-14
    2000           4     100.013     9.48953    -846.154     316.257    -529.898    8.29337e-14    6.21725e-14    6.21725e-14
    2500           5     100.187     13.5223    -843.131     316.807    -526.324    5.59552e-14    9.90319e-14    9.90319e-14
    3000           6     99.9557    -3.19357    -839.733     316.075    -523.658    8.09353e-14    6.80567e-14    6.80567e-14
    3500           7      100.06    -5.29051    -848.552     316.406    -532.146    9.99131e-14    5.76206e-14    5.76206e-14
    4000           8     100.101     1.41792    -830.993     316.535    -514.458    1.02252e-13    5.69406e-14    5.69406e-14
    4500           9     99.8786    -3.87124    -838.694     315.831    -522.863    5.76414e-14    4.27436e-14    4.27436e-14
    5000          10     99.8493     7.14217    -833.566     315.738    -517.828     3.9746e-14     5.9952e-15     5.9952e-15
    5500          11     99.9796    0.160948    -838.445     316.151    -522.294    6.79456e-14     3.5888e-14     3.5888e-14
    6000          12     99.9784    -12.7084    -877.356     316.147    -561.209    4.56232e-14    2.67564e-14    2.67564e-14
    6500          13     99.9661     7.52263    -837.896     316.108    -521.789    5.21805e-14    4.00791e-14    4.00791e-14
    7000          14     99.8839     5.02456    -855.432     315.848    -539.584    3.90799e-14    9.17044e-14    9.17044e-14
    7500          15      100.07     3.04601    -844.937     316.437    -528.501    6.87228e-14    1.07858e-13    1.07858e-13
    8000          16     100.075    -1.04118    -849.887     316.453    -533.434    1.59015e-13    9.23706e-14    9.23706e-14
    8500          17     99.9098    -12.2719    -856.596      315.93    -540.666     1.3789e-13    8.14904e-14    8.14904e-14
    9000          18     99.8746     5.02526    -830.879     315.818    -515.061    1.20293e-13    6.23043e-14    6.23043e-14
    9500          19      100.06    -1.50441    -842.842     316.406    -526.436    9.76996e-14    7.20257e-14    7.20257e-14
   10000          20     100.133  -0.0362235     -838.52     316.636    -521.884    7.22755e-14    5.97855e-14    5.97855e-14
   10500          21     100.051     3.89909    -859.122     316.375    -542.747     6.4726e-14    4.88498e-15    4.88498e-15
   11000          22     99.9709    -2.89086    -865.014     316.123     -548.89    3.26406e-14    2.22045e-14    2.22045e-14
   11500          23     100.148     11.9889    -832.902     316.682     -516.22    4.10783e-14    3.06422e-14    3.06422e-14
   12000          24     100.109     12.3115     -847.82     316.559    -531.262    3.39589e-14    7.77503e-15    7.77503e-15
   12500          25     99.9264    -10.7526    -856.635     315.982    -540.653    8.57647e-15   -3.94129e-14   -3.94129e-14
   13000          26     100.052    -13.2687    -867.138     316.378     -550.76   -3.06005e-14   -2.55351e-14   -2.55351e-14
   13500          27     99.9316    -12.6255    -853.877     315.999    -537.879    3.50553e-14   -2.64788e-14   -2.64788e-14
   14000          28      99.967    -4.82886    -850.993     316.111    -534.882     2.4647e-14   -1.34337e-14   -1.34337e-14
   14500          29     99.9494    -6.99273    -837.726     316.055    -521.671    3.64708e-14   -1.88738e-14   -1.88738e-14
   15000          30     100.121     15.3303    -826.612     316.598    -510.014    4.26326e-14   -2.33702e-14   -2.33702e-14
   15500          31     100.016     2.41843    -832.449     316.266    -516.183    5.87586e-14   -9.99201e-15   -9.99201e-15
   16000          32     99.8504    -7.45626    -851.725     315.742    -535.983    5.18474e-14    9.99201e-15    9.99201e-15
   16500          33     99.8135     11.2263    -836.165     315.625     -520.54    7.93532e-14   -4.16334e-16   -4.16334e-16
   17000          34     100.001     10.4574    -849.029     316.218    -532.811    6.55032e-14   -3.19744e-14   -3.19744e-14
   17500          35     100.065    -16.0712    -847.989     316.419     -531.57    1.93179e-14    -3.9968e-14    -3.9968e-14
   18000          36      99.853    -9.31918    -844.074      315.75    -528.324    9.32587e-15   -4.13003e-14   -4.13003e-14
   18500          37     100.026    -1.10353    -839.393     316.296    -523.097    1.72085e-15   -8.54872e-15   -8.54872e-15
   19000          38     100.114     9.99747    -842.391     316.575    -525.816    4.47697e-14   -1.90126e-14   -1.90126e-14
   19500          39     100.041     -8.6887    -873.785     316.344    -557.441   -5.44009e-15   -1.39333e-14   -1.39333e-14
   20000          40     100.082     7.20928    -843.363     316.476    -526.888   -2.75335e-14    7.14012e-15    7.14012e-15
   20500          41     100.019     1.20229     -851.57     316.275    -535.295    1.11022e-14   -1.15463e-14   -1.15463e-14
   21000          42     99.9305   -0.551387    -830.403     315.995    -514.408    2.42029e-14    5.60663e-15    5.60663e-15
   21500          43     99.8322    -4.02769    -855.723     315.684    -540.038    3.18634e-14    2.79221e-14    2.79221e-14
   22000          44      100.16     7.77378    -838.799     316.721    -522.078    4.17444e-14    5.60663e-14    5.60663e-14
   22500          45     100.148     14.9653    -822.501     316.684    -505.818   -3.29181e-14    4.38538e-14    4.38538e-14
   23000          46     100.193     2.38075    -843.057     316.825    -526.233   -2.29816e-14    7.58282e-14    7.58282e-14
   23500          47     99.8622     2.73774     -853.35     315.779    -537.571   -3.44724e-14    1.15408e-13    1.15408e-13
   24000          48     100.071     6.92004    -831.358     316.441    -514.918   -7.38298e-14    8.74856e-14    8.74856e-14
   24500          49     100.234     15.9393    -829.763     316.954    -512.809   -1.16573e-13    5.88418e-14    5.88418e-14
   25000          50     99.8655    -2.80056     -849.23      315.79     -533.44   -1.54626e-13   -5.10703e-15   -5.10703e-15
   25500          51     99.8628    -3.34987    -833.918     315.781    -518.137      -1.56e-13   -6.23113e-14   -6.23113e-14
   26000          52      100.13    -3.83027    -857.211     316.627    -540.584    -1.3578e-13   -8.34888e-14   -8.34888e-14
   26500          53     99.9577    -6.45886    -850.114     316.081    -534.033   -9.88098e-14   -5.67324e-14   -5.67324e-14
   27000          54      100.01    -5.61714    -839.675     316.245     -523.43   -7.94156e-14   -7.92699e-14   -7.92699e-14
   27500          55     99.9409     2.08276    -841.693     316.028    -525.665   -1.11453e-13   -6.51701e-14   -6.51701e-14
   28000          56     100.023    -1.29584     -841.83     316.287    -525.542   -1.15574e-13   -4.56302e-14   -4.56302e-14
   28500          57     99.9675    -10.1577    -862.867     316.112    -546.755   -1.06692e-13   -7.28306e-14   -7.28306e-14
   29000          58     99.9504   -0.944872    -844.359     316.058    -528.301   -1.45883e-13   -5.16627e-14   -5.16627e-14
   29500          59     99.8955     3.10735    -842.151     315.885    -526.266   -1.40332e-13   -6.63913e-14   -6.63913e-14
   30000          60     99.7914    0.357557    -844.492     315.555    -528.937   -1.75637e-13   -6.57252e-14   -6.57252e-14
   30500          61     99.9482    -3.47363    -836.549     316.051    -520.498   -1.39555e-13   -5.81757e-14   -5.81757e-14
   31000          62     99.8497     2.06823    -840.531      315.74    -524.791   -1.20792e-13   -3.40838e-14   -3.40838e-14
   31500          63     100.053     10.7351    -812.882     316.384    -496.499   -1.46327e-13   -5.32907e-14   -5.32907e-14
   32000          64     99.7377     5.40226    -822.773     315.386    -507.387   -1.06248e-13   -6.76126e-14   -6.76126e-14
   32500          65     100.107     5.28078    -820.895     316.552    -504.344   -1.03695e-13   -6.93889e-14   -6.93889e-14
   33000          66     99.8891    -4.23419    -849.263     315.864    -533.398   -1.11466e-13   -1.01585e-13   -1.01585e-13
   33500          67     100.041    -6.68742     -843.55     316.344    -527.206    -1.0103e-13   -1.26621e-13   -1.26621e-13
   34000          68     99.9058    -8.60199    -852.537     315.917     -536.62   -7.69385e-14   -1.27093e-13   -1.27093e-13
   34500          69     100.242     1.83861    -846.087     316.979    -529.107    -5.1889e-14    -1.5854e-13    -1.5854e-13
   35000          70     99.9324    -6.23514    -851.718     316.001    -535.717   -4.66294e-14   -1.49214e-13   -1.49214e-13
   35500          71     100.035    -10.8202    -849.446     316.326    -533.119   -1.77081e-14   -1.64813e-13   -1.64813e-13
   36000          72     100.058     1.75968    -832.896     316.399    -516.496   -2.37588e-14   -1.63203e-13   -1.63203e-13
   36500          73     100.003    -1.27313    -842.437     316.225    -526.212   -8.32667e-15   -1.20681e-13   -1.20681e-13
   37000          74      100.05    -2.19244    -860.347     316.374    -543.973   -3.18634e-14   -1.25233e-13   -1.25233e-13
   37500          75     100.092    -1.63358    -836.066     316.507    -519.559   -4.50751e-14   -1.09114e-13   -1.09114e-13
   38000          76     99.9887     4.13344    -833.782     316.179    -517.603    9.99201e-15   -7.41351e-14   -7.41351e-14
   38500          77     99.9082     7.52828    -841.633     315.925    -525.709   -2.02061e-14   -6.70575e-14   -6.70575e-14
   39000          78     99.8097    -4.65487    -846.004     315.613    -530.391   -6.32827e-15   -6.82787e-14   -6.82787e-14
   39500          79     100.069    -8.86998    -865.886     316.432    -549.454   -3.21965e-14   -7.71605e-14   -7.71605e-14
   40000          80     100.041     2.00812    -846.806     316.345    -530.461   -6.44207e-14   -8.60423e-14   -8.60423e-14
   40500          81     99.9961     -11.509     -859.93     316.203    -543.727   -4.57967e-14   -9.14824e-14   -9.14824e-14
   41000          82     99.8958     10.5439    -835.953     315.885    -520.068   -4.15223e-14   -1.24678e-13   -1.24678e-13
   41500          83     99.9088     5.86169    -845.191     315.927    -529.264   -2.76862e-14    -7.4829e-14    -7.4829e-14
   42000          84     99.9554    -1.40922    -861.653     316.074    -545.579   -5.45397e-14   -9.65894e-14   -9.65894e-14
   42500          85     100.048    -2.53352    -862.488     316.368     -546.12   -7.21645e-14   -1.19238e-13   -1.19238e-13
   43000          86     100.007   -0.964355    -844.475     316.237    -528.238   -1.03889e-13   -1.19578e-13   -1.19578e-13
   43500          87     99.9612     13.2452    -842.317     316.092    -526.225   -6.36158e-14   -1.22791e-13   -1.22791e-13
   44000          88     100.038    -2.58317    -843.047     316.334    -526.713   -7.26363e-14   -1.09357e-13   -1.09357e-13
   44500          89     100.255    -3.13792    -844.603     317.022     -527.58    -1.2651e-13   -1.15685e-13   -1.15685e-13
   45000          90     100.094    -5.00267    -849.614     316.513    -533.102   -1.31894e-13   -8.99836e-14   -8.99836e-14
   45500          91     100.112      -2.083    -848.454     316.568    -531.886   -1.62315e-13   -5.21805e-14   -5.21805e-14
   46000          92     100.152    -10.8585    -845.475     316.695     -528.78   -1.67533e-13   -4.88498e-15   -4.88498e-15
   46500          93     100.173     10.8309     -830.44     316.763    -513.677   -1.56208e-13    -3.9746e-14    -3.9746e-14
   47000          94     99.9934    -2.65274    -849.175     316.194     -532.98   -1.22347e-13   -3.88578e-14   -3.88578e-14
   47500          95     99.9701    -6.90627    -869.341     316.121    -553.221   -1.33449e-13    -3.4861e-14    -3.4861e-14
   48000          96      100.32     21.7717    -837.002     317.227    -519.775   -1.37557e-13   -4.26326e-14   -4.26326e-14
   48500          97     99.9251    -6.55167    -856.405     315.978    -540.426   -1.39552e-13   -4.94049e-14   -4.94049e-14
   49000          98     100.196     5.24445     -829.99     316.834    -513.156   -1.33893e-13   -1.26565e-14   -1.26565e-14
   49500          99     100.084    -10.2782    -863.782     316.481    -547.301   -1.49991e-13    -1.5099e-14    -1.5099e-14
   50000         100     99.8701   -0.411031    -854.807     315.804    -539.003   -1.58318e-13   -3.68594e-14   -3.68594e-14
   50500         101     100.121     1.05238    -840.972     316.599    -524.373   -1.94678e-13   -7.10959e-14   -7.10959e-14
   51000         102     100.081     1.05241    -844.117     316.471    -527.646   -1.57645e-13   -2.79776e-14   -2.79776e-14
   51500         103     99.9486     8.44774    -854.175     316.052    -538.122   -1.68754e-13   -1.15463e-14   -1.15463e-14
   52000         104     99.8914     4.21228    -842.619     315.872    -526.747    -1.2701e-13   -5.21805e-14   -5.21805e-14
   52500         105     99.9364     8.09289    -846.027     316.014    -530.013   -1.56208e-13   -5.81757e-14   -5.81757e-14
   53000         106      99.915     3.61307     -840.27     315.946    -524.323   -1.38833e-13   -8.21565e-14   -8.21565e-14
   53500         107     99.9563      -3.483    -847.425     316.077    -531.348   -1.62259e-13   -1.04805e-13   -1.04805e-13
   54000         108     100.022     2.32039    -842.437     316.286    -526.152   -2.22156e-13   -6.95555e-14   -6.95555e-14
   54500         109     100.105    -2.73607    -838.772     316.548    -522.225   -2.17965e-13   -8.19206e-14   -8.19206e-14
   55000         110      99.923     4.26387    -835.899     315.972    -519.928   -1.96718e-13   -8.26006e-14   -8.26006e-14
   55500         111     100.064     5.38418    -840.861     316.417    -524.444   -1.36502e-13   -1.00253e-13   -1.00253e-13
   56000         112     100.161     6.27163    -838.714     316.724     -521.99   -1.35121e-13   -1.03431e-13   -1.03431e-13
   56500         113      100.06    -8.52789     -845.66     316.406    -529.254   -1.60094e-13   -6.99441e-14   -6.99441e-14
   57000         114     100.063     12.3887    -839.621     316.413    -523.209   -1.20633e-13   -1.11314e-13   -1.11314e-13
   57500         115      99.991    -10.0761     -861.08     316.187    -544.894   -7.90479e-14   -9.58122e-14   -9.58122e-14
   58000         116     99.9257     13.5118    -837.798      315.98    -521.818   -1.00364e-13    -1.5464e-13    -1.5464e-13
   58500         117     100.015     -11.003    -852.216     316.263    -535.953   -7.34968e-14   -1.61093e-13   -1.61093e-13
   59000         118     100.093      4.5776     -832.16     316.511    -515.649   -4.66294e-14   -1.77303e-13   -1.77303e-13
   59500         119     99.9119    -4.05758    -851.845     315.936    -535.909   -3.75255e-14   -1.60316e-13   -1.60316e-13
   60000         120     100.144     1.19887    -841.844     316.671    -525.173    -3.9746e-14    -2.1072e-13    -2.1072e-13
   60500         121     99.9898     6.95499    -847.155     316.183    -530.973    2.44249e-15   -2.06446e-13   -2.06446e-13
   61000         122     100.053    -2.20248    -834.565     316.384    -518.182   -1.37668e-14   -2.03407e-13   -2.03407e-13
   61500         123     99.8591    -3.91824     -852.86     315.769    -537.091   -1.41688e-14    -1.8785e-13    -1.8785e-13
   62000         124     100.159    -3.22556    -843.628     316.718     -526.91   -1.46549e-14   -2.13093e-13   -2.13093e-13
   62500         125     99.9712     -3.1468    -835.997     316.124    -519.873     1.8742e-14   -2.43305e-13   -2.43305e-13
   63000         126     100.099   -0.843385    -837.947     316.528    -521.419    1.08802e-14   -2.10498e-13   -2.10498e-13
   63500         127     99.7874     1.54968    -833.845     315.543    -518.303    1.33782e-14   -2.25701e-13   -2.25701e-13
   64000         128      99.844     8.56894    -830.364     315.722    -514.643   -1.94289e-15   -2.58238e-13   -2.58238e-13
   64500         129      100.27     -6.5305    -847.861      317.07    -530.791   -2.13163e-14   -2.81553e-13   -2.81553e-13
   65000         130     100.222     6.53927    -846.871     316.916    -529.955   -5.92859e-14   -2.91545e-13   -2.91545e-13
   65500         131     99.8154     9.50863     -833.51     315.631    -517.879   -1.55431e-14   -2.38698e-13   -2.38698e-13
   66000         132     99.8708     2.40698    -828.949     315.806    -513.143   -2.95319e-14   -2.26263e-13   -2.26263e-13
   66500         133     100.073     0.87862    -846.994     316.446    -530.548    -3.4639e-14   -2.69396e-13   -2.69396e-13
   67000         134     99.9864     9.79825    -845.667     316.172    -529.495   -6.28109e-14   -2.51466e-13   -2.51466e-13
   67500         135     100.013    -4.13867    -844.724     316.255    -528.469   -2.93099e-14   -2.79776e-13   -2.79776e-13
   68000         136      99.819      5.7732    -830.946     315.643    -515.303   -6.75016e-14   -3.06699e-13   -3.06699e-13
   68500         137     99.7918    -6.15969    -836.938     315.557    -521.381   -7.23865e-14   -3.17302e-13   -3.17302e-13
   69000         138     100.031    -4.43301    -843.632     316.314    -527.318   -9.03722e-14   -3.28959e-13   -3.28959e-13
   69500         139     99.9709   -0.190911    -847.938     316.123    -531.815   -9.57012e-14   -4.38871e-13   -4.38871e-13
   70000         140     100.196    -5.96128    -845.107     316.834    -528.273    -8.4488e-14   -5.03819e-13   -5.03819e-13
   70500         141     100.041     5.76885    -829.898     316.344    -513.554   -7.39409e-14   -5.48783e-13   -5.48783e-13
   71000         142     100.112     5.41599    -830.991      316.57    -514.421   -6.41709e-14   -4.86944e-13   -4.86944e-13
   71500         143      100.14      -4.216    -848.912     316.656    -532.256   -5.20695e-14   -4.67626e-13   -4.67626e-13
   72000         144     99.8587      10.064    -836.702     315.768    -520.934   -3.13083e-14     -4.797e-13     -4.797e-13
   72500         145     99.9682    -4.77775    -834.136     316.115    -518.022    -1.8624e-14    -4.8106e-13    -4.8106e-13
   73000         146     99.8741     10.6165    -839.756     315.817    -523.939    -2.4529e-14   -4.94937e-13   -4.94937e-13
   73500         147     100.007    -8.95187    -849.259     316.238    -533.021   -5.70655e-14   -4.67737e-13   -4.67737e-13
   74000         148     99.9312     2.17033    -827.094     315.997    -511.097   -5.39568e-14   -5.16288e-13   -5.16288e-13
   74500         149     99.8352     9.83196    -812.196     315.694    -496.502   -1.11466e-13   -5.58886e-13   -5.58886e-13
   75000         150      99.929    -2.16557    -838.405     315.991    -522.414   -1.14575e-13   -5.14699e-13   -5.14699e-13
   75500         151     99.9829    -6.55022    -848.457     316.161    -532.296   -1.10745e-13    -5.2125e-13    -5.2125e-13
   76000         152     100.042    0.578964    -846.431     316.348    -530.083   -1.27454e-13   -5.28577e-13   -5.28577e-13
   76500         153      99.932     6.63892    -842.775         316    -526.775   -5.87724e-14   -5.40012e-13   -5.40012e-13
   77000         154      99.953    -2.87571    -838.764     316.066    -522.698   -6.89448e-14   -5.23137e-13   -5.23137e-13
   77500         155     100.007     3.20655    -859.224     316.238    -542.986    -9.4591e-14   -5.15532e-13   -5.15532e-13
   78000         156     100.052     2.16197    -857.631     316.378    -541.252   -1.50657e-13   -5.04485e-13   -5.04485e-13
   78500         157     99.9298     11.4318    -824.743     315.993     -508.75   -1.62836e-13   -5.32907e-13   -5.32907e-13
   79000         158     100.158    -19.5888    -861.015     316.715    -544.301   -1.38112e-13   -4.96908e-13   -4.96908e-13
   79500         159       100.1    -6.90491    -846.408      316.53    -529.879   -1.67921e-13    -5.0232e-13    -5.0232e-13
   80000         160     100.031    0.612502    -836.746     316.312    -520.434   -1.49686e-13   -5.44564e-13   -5.44564e-13
   80500         161     99.9358     3.66454    -843.062     316.012     -527.05   -1.43996e-13   -5.44009e-13   -5.44009e-13
   81000         162     99.9282    -2.01986    -838.574     315.988    -522.586   -1.78524e-13   -5.87974e-13   -5.87974e-13
   81500         163     100.019    -2.96341    -846.216     316.275    -529.942   -1.95177e-13   -5.74485e-13   -5.74485e-13
   82000         164     99.8348     3.64321    -841.494     315.693    -525.801   -2.27374e-13   -5.94511e-13   -5.94511e-13
   82500         165     99.7963     5.14206    -849.373     315.571    -533.802    -2.4214e-13   -6.12621e-13   -6.12621e-13
   83000         166     99.8132     14.0377     -819.83     315.624    -504.206   -2.56945e-13   -6.16618e-13   -6.16618e-13
   83500         167     99.9121    -10.1291    -862.506     315.937    -546.569   -2.71227e-13   -6.02629e-13   -6.02629e-13
   84000         168     100.007     1.84387     -860.71     316.236    -544.474   -2.52298e-13   -6.14619e-13   -6.14619e-13
   84500         169      100.04    -9.02848     -860.97     316.342    -544.628   -2.60125e-13   -6.28886e-13   -6.28886e-13
   85000         170     100.099     3.80948    -845.721     316.528    -529.193   -2.80942e-13   -6.44484e-13   -6.44484e-13
   85500         171     99.8314     5.47711    -839.822     315.682     -524.14   -2.81997e-13    -6.5592e-13    -6.5592e-13
   86000         172     100.223     2.98115    -844.554      316.92    -527.633   -2.32703e-13   -6.44151e-13   -6.44151e-13
   86500         173     100.037  -0.0880151    -843.114     316.333    -526.781   -2.39211e-13   -6.34381e-13   -6.34381e-13
   87000         174     100.141     6.38975    -850.321     316.662    -533.658   -2.62568e-13    -6.0546e-13    -6.0546e-13
   87500         175     99.8476    -6.07978    -850.966     315.733    -535.233   -2.18048e-13    -6.5703e-13    -6.5703e-13
   88000         176     99.9256    -2.00907    -848.541      315.98    -532.562   -2.33147e-13   -6.58917e-13   -6.58917e-13
   88500         177     99.9901    -6.63798    -855.537     316.184    -539.353    -2.1072e-13   -6.29306e-13   -6.29306e-13
   89000         178     99.9144    -3.39158    -838.464     315.944     -522.52   -1.65312e-13   -6.49591e-13   -6.49591e-13
   89500         179     100.092     27.6191    -807.988     316.505    -491.484    -1.9551e-13   -6.71796e-13   -6.71796e-13
   90000         180     99.9338     3.48692    -844.294     316.006    -528.288   -1.85241e-13   -6.35825e-13   -6.35825e-13
   90500         181     99.8487    -8.76585    -850.914     315.736    -535.177    -1.4666e-13   -6.15064e-13   -6.15064e-13
   91000         182     99.9464    -5.73902    -853.011     316.045    -536.965   -1.47105e-13   -6.24001e-13   -6.24001e-13
   91500         183      100.02     -4.1696    -835.761     316.277    -519.483   -1.70072e-13   -6.33271e-13   -6.33271e-13
   92000         184     99.7439    -3.88358    -846.779     315.405    -531.373   -1.54515e-13   -6.18616e-13   -6.18616e-13
   92500         185     99.9976    -8.11165    -849.006     316.207    -532.798   -7.68274e-14   -6.32161e-13   -6.32161e-13
   93000         186     99.9555     6.94348    -836.959     316.074    -520.884   -1.12577e-13   -6.32716e-13   -6.32716e-13
   93500         187     100.013     11.7051    -831.814     316.257    -515.557   -1.18405e-13   -6.18144e-13   -6.18144e-13
   94000         188     100.023    -3.56406    -850.114     316.286    -533.828   -1.21458e-13   -5.80869e-13   -5.80869e-13
   94500         189      99.936     13.5361    -819.966     316.013    -503.954   -1.46494e-13   -6.24278e-13   -6.24278e-13
   95000         190      100.16    -9.00063    -846.127      316.72    -529.407   -1.34892e-13   -6.10401e-13   -6.10401e-13
   95500         191      100.04    -3.15465     -861.92     316.343    -545.577     -1.385e-13    -5.6477e-13    -5.6477e-13
   96000         192      100.14      13.306    -844.494     316.658    -527.836   -1.83409e-13    -5.9619e-13    -5.9619e-13
   96500         193     100.187     7.07616    -829.399     316.806    -512.593   -1.83853e-13   -6.59583e-13   -6.59583e-13
   97000         194     100.068     6.58807    -830.219     316.429     -513.79   -1.69448e-13    -6.4182e-13    -6.4182e-13
   97500         195     99.8577     3.93004    -841.822     315.765    -526.057    -1.7053e-13    -6.5592e-13    -6.5592e-13
   98000         196     100.084     7.89273    -833.447     316.482    -516.965   -1.48326e-13   -6.40543e-13   -6.40543e-13
   98500         197     100.211     14.6261    -817.401     316.881    -500.519   -1.93096e-13   -7.23144e-13   -7.23144e-13
   99000         198     99.9973     4.28566     -842.37     316.207    -526.163   -1.87239e-13   -6.84786e-13   -6.84786e-13
   99500         199     99.9086    -7.37066    -842.319     315.926    -526.393   -1.26121e-13    -6.6902e-13    -6.6902e-13
  100000         200     100.109    -9.35305    -852.203      316.56    -535.643   -1.39666e-13   -6.71907e-13   -6.71907e-13
