Time step        time           T           P          PE          KE          TE             Px             Py             Pz
       0           0      1.6534    -1.15696           0     632.426     632.426    3.88578e-15    4.44089e-16    4.44089e-16
     100         0.2     1.32183   -0.276523    -779.886       505.6    -274.286    4.10783e-15    2.81997e-14    2.81997e-14
     200         0.4     1.09359    -7.63331    -692.561     418.299    -274.262    1.73195e-14    5.35127e-14    5.35127e-14
     300         0.6    0.890219    -12.7347    -614.769     340.509    -274.261              0    6.43929e-14    6.43929e-14
     400         0.8    0.742552    -11.8142    -558.287     284.026    -274.261   -8.20871e-15    6.13953e-14    6.13953e-14
     500           1    0.651827    -15.9237    -523.584     249.324     -274.26    4.55191e-15     5.8481e-14     5.8481e-14
     600         1.2    0.601645    -14.2833    -504.387     230.129    -274.258    1.66533e-15    7.20535e-14    7.20535e-14
     700         1.4    0.579588    -15.6052    -495.951     221.692    -274.259   -4.77396e-15    6.09512e-14    6.09512e-14
     800         1.6    0.597241    -14.5464    -502.704     228.445    -274.259    5.09315e-15    7.70495e-14    7.70495e-14
     900         1.8    0.613866    -13.8655    -509.061     234.804    -274.258   -8.63198e-15     7.9825e-14     7.9825e-14
    1000           2     0.62735     -10.782     -514.22     239.961    -274.259   -1.78191e-14    7.64111e-14    7.64111e-14
    1100         2.2    0.653065    -5.01862    -524.064     249.797    -274.267   -3.16414e-14    6.61138e-14    6.61138e-14
    1200         2.4    0.669681     -14.935    -530.418     256.153    -274.265   -3.21965e-14    4.24105e-14    4.24105e-14
    1300         2.6    0.671532     -11.359    -531.125     256.861    -274.264   -3.23075e-14    6.05072e-14    6.05072e-14
    1400         2.8    0.693186    -6.86782    -539.408     265.144    -274.264   -2.21489e-14    5.48173e-14    5.48173e-14
    1500           3    0.665096     -6.9062    -528.662     254.399    -274.263   -2.81485e-14    3.19744e-14    3.19744e-14
    1600         3.2    0.657886    -8.60686    -525.898     251.641    -274.256   -4.64837e-14    3.89688e-14    3.89688e-14
    1700         3.4    0.643312    -13.7126    -520.328     246.067    -274.261   -4.54636e-14     3.2252e-14     3.2252e-14
    1800         3.6    0.662331    -3.18938    -527.605     253.342    -274.263   -4.30636e-14    1.79856e-14    1.79856e-14
    1900         3.8    0.663761    -11.1077    -528.147     253.888    -274.259    -6.3255e-14    9.45077e-15    9.45077e-15
    2000           4    0.648065    -9.63579    -522.146     247.885    -274.262    -6.6086e-14    1.57166e-14    1.57166e-14
    2100         4.2    0.641915    -10.6863    -519.793     245.532    -274.261   -6.39801e-14    2.09832e-14    2.09832e-14
    2200         4.4     0.64543    -10.7248     -521.14     246.877    -274.263   -7.53841e-14    3.38618e-14    3.38618e-14
    2300         4.6    0.631272    -12.5659    -515.724     241.461    -274.262   -5.62259e-14    2.27596e-14    2.27596e-14
    2400         4.8    0.624458    -12.8574    -513.117     238.855    -274.262   -5.00433e-14     4.4964e-14     4.4964e-14
    2500           5    0.651321     -10.821    -523.395      249.13    -274.265   -7.15261e-14    5.05151e-14    5.05151e-14
    2600         5.2    0.629948    -10.4939    -515.214     240.955    -274.259   -8.43214e-14    6.13259e-14    6.13259e-14
    2700         5.4    0.646806     -10.825    -521.665     247.403    -274.262   -9.83102e-14    6.60583e-14    6.60583e-14
    2800         5.6    0.652927    -13.7491    -524.009     249.745    -274.264   -1.00087e-13    7.18314e-14    7.18314e-14
    2900         5.8    0.640831    -2.93377    -519.378     245.118     -274.26    -1.0178e-13    9.42024e-14    9.42024e-14
    3000           6    0.649375     -9.2161    -522.644     248.386    -274.258   -9.61453e-14    9.69225e-14    9.69225e-14
    3100         6.2    0.673541    -5.93109    -531.892     257.629    -274.262   -8.87346e-14    1.20598e-13    1.20598e-13
    3200         6.4    0.699931    -3.81559    -541.983     267.724    -274.259   -1.08136e-13    9.34808e-14    9.34808e-14
    3300         6.6    0.712556    -1.44124    -546.818     272.553    -274.266   -8.92619e-14     9.4369e-14     9.4369e-14
    3400         6.8    0.728543    -7.88179    -552.933     278.668    -274.265   -8.77076e-14    9.83658e-14    9.83658e-14
    3500           7    0.712617    -10.0109     -546.84     272.576    -274.264   -8.74856e-14    1.11688e-13    1.11688e-13
    3600         7.2    0.716937   -0.239913    -548.491     274.228    -274.263   -9.29812e-14    1.32783e-13    1.32783e-13
    3700         7.4    0.713923    -6.01112     -547.34     273.075    -274.265   -1.10134e-13    1.17462e-13    1.17462e-13
    3800         7.6    0.666654    -3.80999    -529.256     254.995    -274.261   -9.13158e-14    1.22569e-13    1.22569e-13
    3900         7.8    0.645718    -16.4273    -521.248     246.987    -274.261   -9.74221e-14    1.29896e-13    1.29896e-13
    4000           8    0.617438    -10.0228    -510.428      236.17    -274.258   -1.06248e-13     1.0969e-13     1.0969e-13
    4100         8.2     0.61929    -16.6775    -511.141     236.878    -274.262   -1.01752e-13    1.21902e-13    1.21902e-13
    4200         8.4    0.600862     -11.174    -504.089      229.83    -274.259   -9.17044e-14    1.01696e-13    1.01696e-13
    4300         8.6    0.639485    -11.7955    -518.863     244.603     -274.26   -9.84768e-14    1.05915e-13    1.05915e-13
    4400         8.8    0.678611     -10.024    -533.833     259.569    -274.264    -8.9595e-14    1.15907e-13    1.15907e-13
    4500           9    0.688481    -7.76464    -537.609     263.344    -274.265   -1.16296e-13    1.16351e-13    1.16351e-13
    4600         9.2    0.711888    -10.6192    -546.563     272.297    -274.266   -1.51656e-13    1.15019e-13    1.15019e-13
    4700         9.4    0.719322     -7.4811    -549.405     275.141    -274.264    -1.4666e-13    7.63833e-14    7.63833e-14
    4800         9.6    0.701949    -11.0648    -542.757     268.496    -274.261   -1.65534e-13    7.52731e-14    7.52731e-14
    4900         9.8     0.70844    0.614608    -545.243     270.978    -274.265   -1.66089e-13    9.21485e-14    9.21485e-14
    5000          10     0.68447    -14.2305    -536.076      261.81    -274.266   -1.47049e-13    8.99281e-14    8.99281e-14
    5100        10.2     0.64758    -6.11795    -521.959     247.699     -274.26   -1.37945e-13    1.29008e-13    1.29008e-13
    5200        10.4    0.647152    -16.2738    -521.794     247.536    -274.259   -1.52656e-13    1.37446e-13    1.37446e-13
    5300        10.6    0.643578      -5.922    -520.428     246.169     -274.26   -1.59761e-13    1.42109e-13    1.42109e-13
    5400        10.8    0.627222    -2.01053    -514.173     239.912     -274.26   -1.53932e-13    1.54543e-13    1.54543e-13
    5500          11    0.622553    -8.96878    -512.385     238.127    -274.258   -1.29785e-13    1.59872e-13    1.59872e-13
    5600        11.2    0.626794     -12.307     -514.01     239.749    -274.261   -1.31006e-13    1.50324e-13    1.50324e-13
    5700        11.4    0.663442    -11.5977    -528.035     253.766    -274.269   -1.33005e-13    1.47216e-13    1.47216e-13
    5800        11.6    0.662279    -9.42398    -527.585     253.322    -274.264   -1.17129e-13    1.47882e-13    1.47882e-13
    5900        11.8    0.656769    -15.3546     -525.48     251.214    -274.266   -1.18183e-13    1.47216e-13    1.47216e-13
    6000          12     0.63605    -10.0568    -517.554     243.289    -274.265   -1.24456e-13    1.44329e-13    1.44329e-13
    6100        12.2    0.637452    -12.2011    -518.088     243.825    -274.263   -1.23013e-13    1.58318e-13    1.58318e-13
    6200        12.4    0.640319    -14.1342    -519.183     244.922    -274.261   -1.31894e-13    1.90292e-13    1.90292e-13
    6300        12.6    0.646671    -13.5141    -521.614     247.352    -274.262   -1.23679e-13    1.92513e-13    1.92513e-13
    6400        12.8    0.631612    -14.8693     -515.85     241.591    -274.258   -1.25677e-13     1.8785e-13     1.8785e-13
    6500          13    0.637397    -7.70326    -518.067     243.804    -274.263   -1.22902e-13    1.96732e-13    1.96732e-13
    6600        13.2    0.644123     5.60961    -520.639     246.377    -274.262   -1.10689e-13    1.76748e-13    1.76748e-13
    6700        13.4    0.622542    -13.9617    -512.381     238.122    -274.259   -1.09246e-13    1.57652e-13    1.57652e-13
    6800        13.6    0.602654    -11.0698    -504.775     230.515     -274.26   -1.06803e-13     1.6076e-13     1.6076e-13
    6900        13.8    0.599107    -6.21873    -503.419     229.158     -274.26   -1.13687e-13    1.62315e-13    1.62315e-13
    7000          14    0.569121     -6.6735    -491.946     217.689    -274.257   -1.04805e-13    1.75859e-13    1.75859e-13
    7100        14.2    0.605465    -13.2765    -505.855      231.59    -274.265   -9.17044e-14    1.69198e-13    1.69198e-13
    7200        14.4    0.616691    -11.8336    -510.146     235.884    -274.262   -1.12577e-13    1.83853e-13    1.83853e-13
    7300        14.6    0.617013    -2.51582     -510.27     236.008    -274.262   -1.10634e-13    1.85851e-13    1.85851e-13
    7400        14.8    0.596536    -5.47883    -502.437     228.175    -274.262   -1.09024e-13    1.77192e-13    1.77192e-13
    7500          15    0.616441    -5.21838    -510.049     235.788     -274.26   -1.13909e-13    1.77858e-13    1.77858e-13
    7600        15.2    0.564306     -10.956    -490.103     215.847    -274.256   -9.58122e-14    1.65645e-13    1.65645e-13
    7700        15.4    0.566804    -11.3282     -491.06     216.802    -274.258   -9.30367e-14    1.52989e-13    1.52989e-13
    7800        15.6    0.569293    -6.35191    -492.013     217.754    -274.258   -9.02611e-14    1.43885e-13    1.43885e-13
    7900        15.8    0.570053    -12.0212    -492.304     218.045    -274.258   -9.74221e-14    1.49436e-13    1.49436e-13
    8000          16    0.598499    -11.8325    -503.186     228.926     -274.26   -1.07248e-13    1.52989e-13    1.52989e-13
    8100        16.2    0.636128    -10.8054    -517.582     243.319    -274.263   -1.32672e-13    1.47438e-13    1.47438e-13
    8200        16.4    0.616553    -5.41087    -510.094     235.832    -274.263   -1.30118e-13    1.40998e-13    1.40998e-13
    8300        16.6    0.595721    0.112034    -502.119     227.863    -274.256   -1.23013e-13    1.34115e-13    1.34115e-13
    8400        16.8    0.603884    -17.2697    -505.247     230.986    -274.261   -1.20792e-13    1.48326e-13    1.48326e-13
    8500          17    0.579515    -14.7287    -495.922     221.665    -274.257   -1.22347e-13    1.48992e-13    1.48992e-13
    8600        17.2    0.563162     -10.157    -489.668     215.409    -274.259   -1.10245e-13    1.47438e-13    1.47438e-13
    8700        17.4    0.583236    -11.7025    -497.347     223.088    -274.259   -9.57012e-14    1.45883e-13    1.45883e-13
    8800        17.6    0.574084    -1.59326    -493.844     219.587    -274.257   -1.01252e-13    1.26343e-13    1.26343e-13
    8900        17.8    0.597543    -3.71625    -502.818      228.56    -274.258   -1.11355e-13    1.37224e-13    1.37224e-13
    9000          18    0.581643    -10.3701    -496.736     222.478    -274.257   -1.10356e-13    1.27676e-13    1.27676e-13
    9100        18.2    0.601056    -11.6332    -504.164     229.904     -274.26   -1.16795e-13    1.36779e-13    1.36779e-13
    9200        18.4    0.591187    -10.6261     -500.39     226.129    -274.261   -1.21125e-13    1.21902e-13    1.21902e-13
    9300        18.6    0.574779    -4.98639    -494.112     219.853    -274.259   -1.34892e-13    1.16351e-13    1.16351e-13
    9400        18.8    0.585137     -14.505    -498.074     223.815    -274.259   -1.17129e-13    1.31672e-13    1.31672e-13
    9500          19    0.580545    -8.94982    -496.316     222.059    -274.258   -1.16351e-13    1.31894e-13    1.31894e-13
    9600        19.2     0.56355    -3.81211    -489.821     215.558    -274.263   -1.18405e-13    1.40332e-13    1.40332e-13
    9700        19.4       0.561    -15.8862    -488.843     214.582     -274.26   -1.19793e-13     1.2057e-13     1.2057e-13
    9800        19.6     0.58374    -7.11135    -497.542     223.281    -274.261    -1.2379e-13    1.41887e-13    1.41887e-13
    9900        19.8    0.548519    -11.1042    -484.065     209.809    -274.257   -1.30285e-13    1.37224e-13    1.37224e-13
   10000          20    0.578307    -10.4058    -495.463     221.202     -274.26   -1.35669e-13    1.41442e-13    1.41442e-13
   10100        20.2    0.575201    -3.64197    -494.273     220.014    -274.259   -1.35003e-13    1.37668e-13    1.37668e-13
   10200        20.4    0.607319    -10.7358    -506.567     232.299    -274.267   -1.35891e-13    1.65423e-13    1.65423e-13
   10300        20.6    0.600519    -4.96644    -503.961     229.698    -274.263    -1.3145e-13    1.80522e-13    1.80522e-13
   10400        20.8    0.565335    -5.28272      -490.5     216.241     -274.26   -1.30285e-13    1.78746e-13    1.78746e-13
   10500          21    0.553624    -2.29551     -486.02     211.761    -274.259   -1.35725e-13    1.82077e-13    1.82077e-13
   10600        21.2    0.537207     3.10088     -479.74     205.482    -274.258   -1.40554e-13    1.84963e-13    1.84963e-13
   10700        21.4    0.566109     1.14348    -490.798     216.537    -274.262   -1.28453e-13    1.79412e-13    1.79412e-13
   10800        21.6    0.596856    -12.2058    -502.559     228.297    -274.262   -1.31672e-13    1.71863e-13    1.71863e-13
   10900        21.8    0.586105    0.820042    -498.446     224.185     -274.26   -1.25178e-13    1.71863e-13    1.71863e-13
   11000          22    0.593255    -7.61471     -501.18      226.92     -274.26   -1.22236e-13     1.6076e-13     1.6076e-13
   11100        22.2    0.578339    -6.95434    -495.474     221.215    -274.259   -1.10079e-13    1.58318e-13    1.58318e-13
   11200        22.4    0.588795    -10.8623    -499.473     225.214    -274.259   -1.32783e-13    1.56986e-13    1.56986e-13
   11300        22.6     0.59341    -14.9662    -501.241     226.979    -274.261   -1.14464e-13    1.45883e-13    1.45883e-13
   11400        22.8    0.558997    -9.85194    -488.075     213.816    -274.259   -1.23124e-13    1.42997e-13    1.42997e-13
   11500          23    0.549322     2.16669    -484.374     210.116    -274.258   -1.28064e-13    1.41664e-13    1.41664e-13
   11600        23.2    0.554351    -8.86862    -486.297     212.039    -274.257   -1.04028e-13    1.48104e-13    1.48104e-13
   11700        23.4    0.567997     -3.2315    -491.524     217.259    -274.265   -1.48659e-13    1.43885e-13    1.43885e-13
   11800        23.6    0.563679     -9.0229    -489.868     215.607     -274.26   -1.40887e-13    1.66978e-13    1.66978e-13
   11900        23.8    0.566462     1.98159    -490.932     216.672    -274.261    -1.5804e-13    1.56097e-13    1.56097e-13
   12000          24    0.561277     -1.3789    -488.946     214.688    -274.257   -1.43385e-13    1.64313e-13    1.64313e-13
   12100        24.2    0.579215    -12.6269    -495.808      221.55    -274.258   -1.42164e-13    1.66978e-13    1.66978e-13
   12200        24.4     0.57645     -6.1368    -494.753     220.492     -274.26   -1.29396e-13    1.73639e-13    1.73639e-13
   12300        24.6    0.578938    -4.72395    -495.708     221.444    -274.264   -1.32561e-13    1.68532e-13    1.68532e-13
   12400        24.8    0.586283    -5.30959    -498.514     224.253    -274.261   -1.33671e-13     1.6831e-13     1.6831e-13
   12500          25    0.588186    -9.52166    -499.246     224.981    -274.264   -1.29119e-13     1.8785e-13     1.8785e-13
   12600        25.2    0.567644    -11.3169    -491.384     217.124     -274.26    -1.2651e-13      1.803e-13      1.803e-13
   12700        25.4    0.543198    -3.63358    -482.032     207.773    -274.259   -1.16573e-13    1.55431e-13    1.55431e-13
   12800        25.6    0.543454     -11.325     -482.13     207.871    -274.259   -1.21014e-13    1.45883e-13    1.45883e-13
   12900        25.8    0.546406    -4.32647    -483.258         209    -274.257   -1.17018e-13    1.67422e-13    1.67422e-13
   13000          26    0.591508    -8.70417    -500.514     226.252    -274.262   -1.24234e-13    1.73861e-13    1.73861e-13
   13100        26.2    0.587009    -9.11237    -498.795     224.531    -274.264   -1.22458e-13    1.66533e-13    1.66533e-13
   13200        26.4    0.565807     -3.3349     -490.68     216.421    -274.259   -1.27232e-13    1.84963e-13    1.84963e-13
   13300        26.6     0.55406    -10.2158    -486.188     211.928     -274.26   -1.20681e-13    1.76525e-13    1.76525e-13
   13400        26.8    0.556172    -9.96963    -486.997     212.736    -274.261   -1.28675e-13    1.73195e-13    1.73195e-13
   13500          27     0.51772    -14.9787    -472.284     198.028    -274.256    -1.4333e-13    1.71418e-13    1.71418e-13
   13600        27.2    0.530981     -14.906    -477.361       203.1    -274.261    -1.3356e-13    1.61204e-13    1.61204e-13
   13700        27.4    0.544239    -14.8471    -482.432     208.171    -274.261   -1.37224e-13    1.63647e-13    1.63647e-13
   13800        27.6    0.563911    -12.9415    -489.956     215.696     -274.26   -1.37113e-13    1.59428e-13    1.59428e-13
   13900        27.8    0.568016   -0.101513    -491.525     217.266    -274.259   -1.38112e-13    1.48104e-13    1.48104e-13
   14000          28    0.585848    -1.97684    -498.347     224.087     -274.26   -1.38112e-13    1.66533e-13    1.66533e-13
   14100        28.2    0.583757    -8.06767     -497.55     223.287    -274.263   -1.55598e-13    1.49436e-13    1.49436e-13
   14200        28.4    0.563535    -10.0379    -489.811     215.552    -274.259   -1.67755e-13    1.52323e-13    1.52323e-13
   14300        28.6    0.581748    -4.35721    -496.778     222.518    -274.259   -1.76414e-13    1.60316e-13    1.60316e-13
   14400        28.8    0.568069    -9.79708    -491.546     217.287    -274.259   -1.66922e-13     1.5743e-13     1.5743e-13
   14500          29    0.568436    -6.97687    -491.687     217.427     -274.26   -1.79856e-13    1.48992e-13    1.48992e-13
   14600        29.2    0.578209    -12.5715    -495.422     221.165    -274.257   -1.70253e-13    1.61426e-13    1.61426e-13
   14700        29.4    0.571743    -11.9828     -492.95     218.692    -274.258   -1.61093e-13    1.77414e-13    1.77414e-13
   14800        29.6    0.554631    -7.28637    -486.403     212.146    -274.257   -1.63758e-13    1.76081e-13    1.76081e-13
   14900        29.8    0.549724     -14.238    -484.528     210.269    -274.259   -1.79468e-13     1.7808e-13     1.7808e-13
   15000          30    0.540409    -13.0624    -480.966     206.706     -274.26   -1.63924e-13    1.66978e-13    1.66978e-13
   15100        30.2    0.540309    -7.15178    -480.928     206.668     -274.26   -1.50768e-13      1.672e-13      1.672e-13
   15200        30.4    0.511344    -12.3748    -469.848     195.589    -274.259   -1.63425e-13    1.64979e-13    1.64979e-13
   15300        30.6    0.524403    -14.4584    -474.843     200.584    -274.259   -1.48104e-13    1.68754e-13    1.68754e-13
   15400        30.8    0.527351    0.740184    -475.969     201.712    -274.257   -1.56097e-13    1.84297e-13    1.84297e-13
   15500          31    0.568043    -13.9553    -491.539     217.276    -274.262   -1.59428e-13    1.66978e-13    1.66978e-13
   15600        31.2    0.546047    -12.8221    -483.122     208.863    -274.259   -1.56763e-13    1.71418e-13    1.71418e-13
   15700        31.4    0.571518     -1.6919    -492.865     218.605     -274.26   -1.74749e-13    1.96287e-13    1.96287e-13
   15800        31.6    0.546376    -12.3367    -483.249     208.989    -274.261   -1.74305e-13    2.06501e-13    2.06501e-13
   15900        31.8    0.558229    -10.8123     -487.78     213.522    -274.257   -1.65534e-13    1.93623e-13    1.93623e-13
   16000          32    0.570795     -3.5566    -492.589     218.329     -274.26   -1.67033e-13    1.86962e-13    1.86962e-13
   16100        32.2    0.554008    -9.35802    -486.167     211.908    -274.259   -1.66533e-13     2.0095e-13     2.0095e-13
   16200        32.4     0.56215    -5.29739    -489.282     215.022     -274.26   -1.83631e-13    2.00728e-13    2.00728e-13
   16300        32.6    0.564051    -10.6162    -490.008      215.75    -274.259   -1.73084e-13    2.24487e-13    2.24487e-13
   16400        32.8    0.569818    -13.7963    -492.215     217.955     -274.26   -1.60039e-13    2.22045e-13    2.22045e-13
   16500          33    0.553724    -8.83449    -486.062     211.799    -274.263   -1.58873e-13     2.2693e-13     2.2693e-13
   16600        33.2    0.559882    -10.9941    -488.413     214.155    -274.258   -1.62759e-13    2.35367e-13    2.35367e-13
   16700        33.4    0.564918    -7.67494    -490.342     216.081    -274.261    -1.5471e-13    2.33813e-13    2.33813e-13
   16800        33.6    0.562391    -3.70252    -489.376     215.115    -274.261   -1.48714e-13    2.26708e-13    2.26708e-13
   16900        33.8    0.572598     -7.7328    -493.281     219.019    -274.262   -1.56652e-13    2.23599e-13    2.23599e-13
   17000          34     0.55158     -11.611     -485.24     210.979    -274.261   -1.61038e-13    2.24265e-13    2.24265e-13
   17100        34.2    0.529486     1.08296    -476.786     202.528    -274.258   -1.59039e-13    2.28262e-13    2.28262e-13
   17200        34.4    0.546804    -18.1769    -483.413     209.152     -274.26   -1.56042e-13    2.34701e-13    2.34701e-13
   17300        34.6    0.551944   -0.787291    -485.379     211.119    -274.261   -1.59095e-13    2.38476e-13    2.38476e-13
   17400        34.8    0.531724    -9.25071    -477.643     203.384    -274.259   -1.43052e-13    2.34479e-13    2.34479e-13
   17500          35    0.532588    -13.9787    -477.975     203.715     -274.26   -1.38112e-13    2.27374e-13    2.27374e-13
   17600        35.2    0.548193    -16.2858    -483.942     209.684    -274.259   -1.52545e-13    2.27818e-13    2.27818e-13
   17700        35.4    0.561538    -7.13051    -489.052     214.788    -274.263   -1.63092e-13    2.33369e-13    2.33369e-13
   17800        35.6    0.569557     -7.6277    -492.114     217.855    -274.259   -1.61648e-13    2.39364e-13    2.39364e-13
   17900        35.8    0.595106    -15.6623    -501.891     227.628    -274.263   -1.59317e-13    2.40474e-13    2.40474e-13
   18000          36    0.581841    -9.54322    -496.818     222.554    -274.264   -1.74416e-13    2.32259e-13    2.32259e-13
   18100        36.2    0.553112    -9.22237    -485.823     211.566    -274.258   -1.74749e-13    2.34923e-13    2.34923e-13
   18200        36.4    0.530532    -9.95676    -477.187     202.928    -274.259   -1.48048e-13    2.54907e-13    2.54907e-13
   18300        36.6    0.524822    -13.7815    -475.003     200.744    -274.259   -1.56875e-13    2.48468e-13    2.48468e-13
   18400        36.8    0.522848    -9.56249    -474.248     199.989    -274.258   -1.53655e-13    2.60236e-13    2.60236e-13
   18500          37    0.540103    -3.27617    -480.849     206.589     -274.26   -1.64979e-13    2.64011e-13    2.64011e-13
   18600        37.2    0.586663    -13.6518    -498.661     224.398    -274.262   -1.66311e-13    2.55129e-13    2.55129e-13
   18700        37.4    0.556974    -5.17453    -487.302     213.042     -274.26   -1.67755e-13    2.54463e-13    2.54463e-13
   18800        37.6    0.557647    -11.3737    -487.558       213.3    -274.258   -1.81077e-13    2.46914e-13    2.46914e-13
   18900        37.8    0.541693    -7.34197    -481.457     207.198     -274.26   -1.66755e-13    2.45581e-13    2.45581e-13
   19000          38    0.535137    -11.6837    -478.949      204.69    -274.259    -1.7325e-13    2.47358e-13    2.47358e-13
   19100        38.2     0.53865    -13.6121    -480.293     206.034    -274.259   -1.65812e-13    2.63789e-13    2.63789e-13
   19200        38.4    0.544612    -17.2247    -482.572     208.314    -274.258   -1.73861e-13     2.8777e-13     2.8777e-13
   19300        38.6    0.555723    -5.64872    -486.822     212.564    -274.258   -1.76303e-13    2.92211e-13    2.92211e-13
   19400        38.8     0.54475     5.78615    -482.627     208.367     -274.26    -1.8574e-13    2.94875e-13    2.94875e-13
   19500          39    0.570075    -14.0855    -492.317     218.054    -274.263   -1.72862e-13    2.79776e-13    2.79776e-13
   19600        39.2      0.5718     -16.383    -492.974     218.713    -274.261   -1.80911e-13    2.83329e-13    2.83329e-13
   19700        39.4    0.548814    -6.30874     -484.18     209.921    -274.259    -1.8413e-13       2.78e-13       2.78e-13
   19800        39.6    0.552204    -8.80828    -485.476     211.218    -274.258   -1.83575e-13    2.79776e-13    2.79776e-13
   19900        39.8    0.561969    -3.44394    -489.209     214.953    -274.256    -1.9168e-13       2.78e-13       2.78e-13
   20000          40    0.562102    -5.10301    -489.263     215.004    -274.259   -1.85296e-13    2.74003e-13    2.74003e-13
   20100        40.2    0.580917    -5.61329    -496.465     222.201    -274.264   -1.83575e-13    2.74003e-13    2.74003e-13
   20200        40.4    0.547494    -16.8948    -483.676     209.417    -274.259   -1.78524e-13    2.63789e-13    2.63789e-13
   20300        40.6    0.551451    -9.71618    -485.188      210.93    -274.258   -1.70919e-13     2.6068e-13     2.6068e-13
   20400        40.8    0.531877    -15.3712    -477.701     203.443    -274.258   -1.88849e-13    2.52465e-13    2.52465e-13
   20500          41    0.545989    -8.82548      -483.1     208.841     -274.26   -1.93401e-13    2.46025e-13    2.46025e-13
   20600        41.2    0.543692    -7.58096    -482.222     207.962     -274.26   -1.92568e-13    2.40696e-13    2.40696e-13
   20700        41.4    0.542003    -14.2268    -481.575     207.316    -274.259   -1.88405e-13    2.51577e-13    2.51577e-13
   20800        41.6    0.548818    -17.8023    -484.181     209.923    -274.258    -1.9551e-13    2.50466e-13    2.50466e-13
   20900        41.8    0.557311    -3.12331    -487.429     213.172    -274.258   -1.96787e-13    2.47136e-13    2.47136e-13
   21000          42     0.59841     -11.555    -503.154     228.892    -274.262   -2.11053e-13    2.48246e-13    2.48246e-13
   21100        42.2    0.594834     -12.293    -501.787     227.524    -274.263     -1.944e-13    2.42251e-13    2.42251e-13
   21200        42.4    0.577052     4.84203    -494.984     220.722    -274.261   -2.05114e-13    2.39808e-13    2.39808e-13
   21300        42.6     0.55577    -9.72771     -486.84     212.582    -274.258   -2.13163e-13    2.12497e-13    2.12497e-13
   21400        42.8    0.514447    -14.5081    -471.035     196.776    -274.259   -2.17104e-13    2.09166e-13    2.09166e-13
   21500          43    0.520199    -7.05315    -473.234     198.976    -274.258   -2.21267e-13    2.16716e-13    2.16716e-13
   21600        43.2    0.542049    -8.44096    -481.595     207.334    -274.261   -2.22933e-13    2.22933e-13    2.22933e-13
   21700        43.4    0.571471    -9.95211    -492.849     218.588    -274.261   -2.41029e-13    1.96287e-13    1.96287e-13
   21800        43.6    0.544233    -2.57513    -482.426     208.169    -274.257   -2.48024e-13     1.9762e-13     1.9762e-13
   21900        43.8     0.56896    -9.40277    -491.886     217.627    -274.259   -2.37921e-13    2.01172e-13    2.01172e-13
   22000          44    0.542981    -8.24187    -481.948      207.69    -274.258   -2.38476e-13    2.05613e-13    2.05613e-13
   22100        44.2    0.546317    -11.8511    -483.225     208.966    -274.259    -2.6712e-13     2.1827e-13     2.1827e-13
   22200        44.4    0.541543    -3.67455    -481.401      207.14    -274.261   -2.63345e-13    2.20712e-13    2.20712e-13
   22300        44.6    0.533912    -4.06615    -478.481     204.222    -274.259   -2.69673e-13    2.18048e-13    2.18048e-13
   22400        44.8    0.558073    -11.2321    -487.723     213.463     -274.26   -2.62235e-13    2.16493e-13    2.16493e-13
   22500          45    0.568787    -12.3122    -491.821     217.561     -274.26   -2.85771e-13    1.94733e-13    1.94733e-13
   22600        45.2    0.547493    -18.9239    -483.675     209.416    -274.259   -2.86271e-13    2.08278e-13    2.08278e-13
   22700        45.4    0.556698    -7.66566    -487.196     212.937    -274.259   -2.87992e-13    1.97176e-13    1.97176e-13
   22800        45.6    0.571188    -11.8589    -492.738     218.479    -274.259   -2.83107e-13    2.05613e-13    2.05613e-13
   22900        45.8    0.565359    -5.38278     -490.51      216.25     -274.26    -2.8888e-13    2.01617e-13    2.01617e-13
   23000          46    0.556463    -5.49879    -487.107     212.847    -274.259   -3.00315e-13    1.92291e-13    1.92291e-13
   23100        46.2    0.547843    -6.11126    -483.812      209.55    -274.262   -3.05589e-13    1.88738e-13    1.88738e-13
   23200        46.4    0.558124    -6.45236    -487.741     213.482    -274.259   -3.08864e-13    2.04503e-13    2.04503e-13
   23300        46.6    0.557603     -12.449    -487.542     213.283    -274.259   -3.31069e-13    2.09166e-13    2.09166e-13
   23400        46.8      0.5254    -4.98108    -475.224     200.965    -274.258   -3.30569e-13    2.16271e-13    2.16271e-13
   23500          47    0.539647    -5.47959    -480.674     206.415    -274.259   -3.24074e-13    2.28706e-13    2.28706e-13
   23600        47.2    0.515872    -7.59379    -471.578     197.321    -274.257   -3.19911e-13    2.30482e-13    2.30482e-13