Time step        time           T           P          PE          KE          TE             Px             Py             Pz
       0           0         1.1    -6.02419           0      420.75      420.75   -4.60743e-15    6.66134e-16    6.66134e-16
     100         0.2    0.916795     1.83958    -1126.38     350.674    -775.708   -7.32747e-15   -5.05151e-15   -5.05151e-15
     200         0.4    0.805539     5.25994    -1083.83     308.119    -775.707    1.69309e-15   -4.94049e-15   -4.94049e-15
     300         0.6    0.747587     7.00474    -1061.66     285.952     -775.71   -4.85167e-14   -9.88098e-15   -9.88098e-15
     400         0.8    0.825189     3.04322    -1091.34     315.635    -775.706   -5.10703e-14    3.83027e-15    3.83027e-15
     500           1    0.879609      2.6842    -1112.16      336.45    -775.711   -5.63993e-14   -2.63123e-14   -2.63123e-14
     600         1.2     0.79969     2.95289    -1081.58     305.881    -775.695   -5.55112e-14   -2.70894e-14   -2.70894e-14
     700         1.4    0.877771    0.767147    -1111.46     335.747    -775.711   -7.99361e-14   -3.76366e-14   -3.76366e-14
     800         1.6    0.859815     4.75331    -1104.59     328.879    -775.713   -6.86118e-14   -5.25135e-14   -5.25135e-14
     900         1.8    0.836001     5.30492    -1095.48      319.77    -775.709   -8.26006e-14   -7.06102e-14   -7.06102e-14
    1000           2    0.835503     2.04649    -1095.28      319.58    -775.697   -8.72635e-14   -5.82312e-14   -5.82312e-14
    1100         2.2    0.825686     2.44654    -1091.53     315.825    -775.704   -1.01696e-13   -6.70575e-14   -6.70575e-14
    1200         2.4    0.806763     3.05444     -1084.3     308.587    -775.711   -9.91429e-14    -7.6994e-14    -7.6994e-14
    1300         2.6    0.811309     3.35171    -1086.04     310.326     -775.71   -7.08322e-14    -7.9603e-14    -7.9603e-14
    1400         2.8     0.82141     3.93315    -1089.89     314.189      -775.7   -8.21565e-14    -8.4821e-14    -8.4821e-14
    1500           3     0.83965     4.65558    -1096.87     321.166    -775.702   -6.17284e-14    -9.9698e-14    -9.9698e-14
    1600         3.2    0.841217      3.1376    -1097.48     321.766    -775.712    -1.1402e-13   -1.39277e-13   -1.39277e-13
    1700         3.4    0.831461     5.93208    -1093.74     318.034    -775.707   -8.67639e-14   -1.44218e-13   -1.44218e-13
    1800         3.6    0.846685     4.57793    -1099.57     323.857    -775.718   -1.11022e-13   -1.65257e-13   -1.65257e-13
    1900         3.8    0.837091     5.91756     -1095.9     320.187    -775.715   -9.50542e-14   -1.54557e-13   -1.54557e-13
    2000           4    0.808235     5.38724    -1084.86      309.15     -775.71   -9.93094e-14   -1.25677e-13   -1.25677e-13
    2100         4.2    0.860411     5.11177    -1104.81     329.107    -775.704   -1.10412e-13   -1.31006e-13   -1.31006e-13
    2200         4.4    0.858967     4.22446    -1104.27     328.555    -775.711   -1.15713e-13   -1.52989e-13   -1.52989e-13
    2300         4.6    0.835759     4.00511    -1095.38     319.678    -775.705   -1.15241e-13   -1.67866e-13   -1.67866e-13
    2400         4.8    0.832349     2.79417    -1094.08     318.374    -775.705   -1.30451e-13   -1.89987e-13   -1.89987e-13
    2500           5    0.822151     2.31834    -1090.17     314.473    -775.702   -1.46994e-13   -1.73861e-13   -1.73861e-13
    2600         5.2    0.876856     2.29948    -1111.11     335.397    -775.716   -1.54543e-13   -1.86962e-13   -1.86962e-13
    2700         5.4    0.832192     4.36653    -1094.02     318.314    -775.705   -1.29785e-13   -2.00062e-13   -2.00062e-13
    2800         5.6    0.808315     7.65759    -1084.88      309.18    -775.704   -1.19238e-13   -1.88405e-13   -1.88405e-13
    2900         5.8    0.828507     4.20359    -1092.62     316.904    -775.715   -1.13243e-13   -2.02283e-13   -2.02283e-13
    3000           6    0.794085     6.59075    -1079.45     303.737     -775.71   -1.14575e-13   -1.96398e-13   -1.96398e-13
    3100         6.2    0.788831     2.55971    -1077.43     301.728    -775.698   -1.18294e-13   -2.22489e-13   -2.22489e-13
    3200         6.4    0.826996     3.21754    -1092.03     316.326    -775.707   -1.01141e-13   -2.33924e-13   -2.33924e-13
    3300         6.6    0.836431     3.23591    -1095.65     319.935    -775.714   -8.74856e-14   -2.15161e-13   -2.15161e-13
    3400         6.8    0.845985       1.866     -1099.3     323.589    -775.709   -7.63833e-14   -2.32481e-13   -2.32481e-13
    3500           7    0.855488     1.21881    -1102.93     327.224    -775.703   -8.58133e-14   -2.41474e-13   -2.41474e-13
    3600         7.2    0.825927     2.17907    -1091.62     315.917    -775.706   -8.34888e-14   -2.30316e-13   -2.30316e-13
    3700         7.4    0.857281      2.4018    -1103.61      327.91    -775.695   -9.72555e-14   -2.33556e-13   -2.33556e-13
    3800         7.6    0.810921      5.6013    -1085.88     310.177    -775.706   -1.04253e-13   -2.15439e-13   -2.15439e-13
    3900         7.8    0.857794     4.40325    -1103.82     328.106    -775.715   -1.16074e-13   -1.86962e-13   -1.86962e-13
    4000           8    0.862843     1.97252    -1105.75     330.038    -775.716   -8.87068e-14   -1.96454e-13   -1.96454e-13
    4100         8.2    0.838285     3.21214    -1096.36     320.644    -775.712   -1.00808e-13   -1.54599e-13   -1.54599e-13
    4200         8.4    0.834705     3.07191    -1094.98     319.275    -775.709   -1.03237e-13   -1.72751e-13   -1.72751e-13
    4300         8.6    0.829741     3.10061    -1093.08     317.376    -775.704   -1.17795e-13   -1.75304e-13   -1.75304e-13
    4400         8.8    0.879405     2.35173    -1112.08     336.372     -775.71   -1.22395e-13   -1.78468e-13   -1.78468e-13
    4500           9    0.842527     2.70093    -1097.98     322.267     -775.71   -1.22791e-13   -1.67866e-13   -1.67866e-13
    4600         9.2    0.792184     1.16784    -1078.71      303.01    -775.703   -1.19516e-13   -2.26041e-13   -2.26041e-13
    4700         9.4    0.850144   -0.530208    -1100.89      325.18    -775.709   -1.34337e-13   -2.06946e-13   -2.06946e-13
    4800         9.6    0.886013   -0.025005    -1114.62       338.9    -775.715   -1.34059e-13   -1.98952e-13   -1.98952e-13
    4900         9.8     0.81022     4.52934    -1085.61     309.909    -775.702   -1.39722e-13   -2.10498e-13   -2.10498e-13
    5000          10    0.824327      3.1574    -1091.01     315.305    -775.707   -1.29272e-13   -2.02061e-13   -2.02061e-13
    5100        10.2    0.814526     4.00093    -1087.27     311.556     -775.71   -1.19682e-13   -2.15716e-13   -2.15716e-13
    5200        10.4    0.858192     1.63087    -1103.98     328.259    -775.723   -1.10689e-13   -2.10276e-13   -2.10276e-13
    5300        10.6    0.888261    0.342566    -1115.47      339.76    -775.711   -1.02029e-13   -2.22267e-13   -2.22267e-13
    5400        10.8    0.894021     1.26855    -1117.68     341.963    -775.715   -7.77156e-14   -2.18603e-13   -2.18603e-13
    5500          11    0.828182     2.20966    -1092.48     316.779    -775.704   -6.41709e-14   -2.31509e-13   -2.31509e-13
    5600        11.2    0.870742    0.646146    -1108.77     333.059    -775.712   -7.50511e-14   -2.32148e-13   -2.32148e-13
    5700        11.4    0.798794     4.84513    -1081.24     305.539    -775.702   -8.63198e-14   -2.41918e-13   -2.41918e-13
    5800        11.6     0.84208     1.33096     -1097.8     322.096    -775.707   -1.05804e-13   -2.42917e-13   -2.42917e-13
    5900        11.8    0.847993     3.01196    -1100.07     324.357    -775.709   -9.63674e-14   -2.34375e-13   -2.34375e-13
    6000          12    0.842457     1.14313    -1097.94      322.24    -775.702   -8.17124e-14   -2.45026e-13   -2.45026e-13
    6100        12.2    0.880021     2.09307    -1112.32     336.608    -775.716   -9.50351e-14   -2.77778e-13   -2.77778e-13
    6200        12.4    0.855043     2.73861    -1102.76     327.054    -775.709   -9.43412e-14   -2.74059e-13   -2.74059e-13
    6300        12.6    0.817765     6.17053     -1088.5     312.795    -775.709   -8.24896e-14   -2.72893e-13   -2.72893e-13
    6400        12.8    0.859442     2.54162    -1104.45     328.737    -775.709   -1.01197e-13   -2.80109e-13   -2.80109e-13
    6500          13    0.863495      2.9737       -1106     330.287    -775.709   -1.22569e-13   -2.81219e-13   -2.81219e-13
    6600        13.2    0.815046     6.08648    -1087.46     311.755    -775.704   -1.02418e-13   -2.80581e-13   -2.80581e-13
    6700        13.4    0.839464     2.36268    -1096.81     321.095    -775.714   -8.31557e-14   -2.77556e-13   -2.77556e-13
    6800        13.6     0.84243     2.51063    -1097.93     322.229    -775.704   -9.17044e-14   -2.45803e-13   -2.45803e-13
    6900        13.8    0.805578     3.54556    -1083.85     308.134    -775.715   -9.37028e-14   -2.61124e-13   -2.61124e-13
    7000          14    0.903914     2.11433    -1121.46     345.747    -775.708   -8.00471e-14   -2.63123e-13   -2.63123e-13
    7100        14.2    0.849138      4.5211     -1100.5     324.795    -775.706   -7.92699e-14   -2.63345e-13   -2.63345e-13
    7200        14.4    0.848952      1.3689    -1100.44     324.724    -775.713   -7.29417e-14   -2.37144e-13   -2.37144e-13
    7300        14.6    0.846447     1.44252    -1099.47     323.766    -775.705   -9.69225e-14     -2.435e-13     -2.435e-13
    7400        14.8    0.814045     2.66677    -1087.08     311.372    -775.708   -1.08913e-13   -2.37144e-13   -2.37144e-13
    7500          15     0.89639     1.75141    -1118.59     342.869    -775.717   -1.06359e-13   -2.14495e-13   -2.14495e-13
    7600        15.2    0.866115     1.93929       -1107     331.289    -775.715   -1.05749e-13   -2.06724e-13   -2.06724e-13
    7700        15.4    0.775698     4.45276    -1072.41     296.705    -775.701    -1.1488e-13   -2.10831e-13   -2.10831e-13
    7800        15.6    0.861703    0.292249     -1105.3     329.602    -775.701   -1.06248e-13   -1.97953e-13   -1.97953e-13
    7900        15.8    0.847455     2.29392    -1099.85     324.152    -775.699   -9.69502e-14   -1.89515e-13   -1.89515e-13
    8000          16     0.82681     3.18354    -1091.96     316.255    -775.709   -1.01252e-13   -1.99618e-13   -1.99618e-13
    8100        16.2    0.821977     2.04121    -1090.12     314.406     -775.71   -8.87068e-14   -2.25375e-13   -2.25375e-13
    8200        16.4    0.883386   -0.126272     -1113.6     337.895    -775.709   -9.05942e-14   -2.27596e-13   -2.27596e-13
    8300        16.6    0.829919     1.23362    -1093.14     317.444    -775.693   -9.94205e-14   -2.27596e-13   -2.27596e-13
    8400        16.8    0.874918     1.42289    -1110.37     334.656    -775.715   -9.71168e-14   -2.61346e-13   -2.61346e-13
    8500          17    0.839677     6.04359    -1096.89     321.176    -775.716   -8.72635e-14   -2.50244e-13   -2.50244e-13
    8600        17.2    0.850164     2.87934     -1100.9     325.188    -775.709   -9.62563e-14   -2.68452e-13   -2.68452e-13
    8700        17.4    0.885589    -1.01935    -1114.46     338.738    -775.719   -1.26676e-13   -2.47913e-13   -2.47913e-13
    8800        17.6    0.818477     4.00325    -1088.77     313.068    -775.704   -1.33393e-13   -2.45387e-13   -2.45387e-13
    8900        17.8    0.846906     3.00256    -1099.65     323.942    -775.706   -1.16351e-13   -2.54685e-13   -2.54685e-13
    9000          18    0.818784     2.25006    -1088.89     313.185    -775.703   -1.19016e-13   -2.57794e-13   -2.57794e-13
    9100        18.2    0.798616     5.10014    -1081.17     305.471    -775.704   -1.20015e-13    -2.6823e-13    -2.6823e-13
    9200        18.4    0.842365     4.85807     -1097.9     322.205    -775.699   -1.09135e-13    -2.8072e-13    -2.8072e-13
    9300        18.6    0.857966     5.20219    -1103.88     328.172    -775.707   -1.08247e-13   -2.91545e-13   -2.91545e-13
    9400        18.8    0.819198     2.46739    -1089.04     313.343      -775.7   -1.09246e-13   -2.83995e-13   -2.83995e-13
    9500          19    0.888528    -1.49487    -1115.58     339.862    -775.718   -1.13243e-13   -2.56739e-13   -2.56739e-13
    9600        19.2    0.833503     5.24363    -1094.52     318.815    -775.703   -1.36002e-13   -2.55407e-13   -2.55407e-13
    9700        19.4    0.849247     1.25377    -1100.56     324.837    -775.721   -1.04139e-13   -2.81053e-13   -2.81053e-13
    9800        19.6    0.852068     1.70178    -1101.63     325.916     -775.71   -1.27232e-13    -2.7689e-13    -2.7689e-13
    9900        19.8    0.848613     3.23511    -1100.31     324.595    -775.716   -1.14353e-13   -2.65787e-13   -2.65787e-13
   10000          20    0.876512     3.32752    -1110.98     335.266    -775.712   -8.60423e-14   -2.76112e-13   -2.76112e-13
   10100        20.2    0.830025     4.19004    -1093.19     317.485    -775.705   -1.09857e-13   -2.42251e-13   -2.42251e-13
   10200        20.4    0.865472     3.47091    -1106.76     331.043    -775.719   -1.29213e-13   -2.61458e-13   -2.61458e-13
   10300        20.6    0.839058     1.75431    -1096.65      320.94    -775.713   -1.04861e-13   -2.56573e-13   -2.56573e-13
   10400        20.8    0.845029     6.11805    -1098.93     323.224    -775.711   -9.97258e-14    -2.4003e-13    -2.4003e-13
   10500          21    0.848144     2.39868    -1100.13     324.415    -775.712    -1.2168e-13   -2.74003e-13   -2.74003e-13
   10600        21.2    0.854796     3.35924    -1102.67     326.959    -775.709   -1.38889e-13   -2.93821e-13   -2.93821e-13
   10700        21.4    0.825589     2.95716     -1091.5     315.788    -775.715   -1.57319e-13   -2.90434e-13   -2.90434e-13
   10800        21.6    0.911584   -0.161999     -1124.4     348.681    -775.714    -1.3689e-13   -2.75113e-13   -2.75113e-13
   10900        21.8    0.850196     4.89712    -1100.91       325.2     -775.71   -1.32533e-13   -2.58515e-13   -2.58515e-13
   11000          22    0.802383     5.51479    -1082.62     306.912    -775.706   -1.13021e-13   -2.65121e-13   -2.65121e-13
   11100        22.2    0.883422     1.57741    -1113.62     337.909    -775.715    -1.0969e-13     -2.639e-13     -2.639e-13
   11200        22.4    0.816016     3.90719    -1087.84     312.126    -775.715    -1.0969e-13   -2.67342e-13   -2.67342e-13
   11300        22.6    0.757899     5.39924    -1065.59     289.897    -775.694   -1.14575e-13   -2.72005e-13   -2.72005e-13
   11400        22.8    0.823063     1.98479    -1090.52     314.821    -775.696   -1.01696e-13   -2.76112e-13   -2.76112e-13
   11500          23    0.871094     3.03548    -1108.91     333.194    -775.718    -1.0647e-13    -2.4869e-13    -2.4869e-13
   11600        23.2    0.877121      1.0644    -1111.21     335.499    -775.713   -1.20792e-13   -2.41585e-13   -2.41585e-13
   11700        23.4    0.849003     1.63222    -1100.46     324.744    -775.712   -1.53572e-13   -2.48024e-13   -2.48024e-13
   11800        23.6    0.905518     1.97532    -1122.07     346.361    -775.714   -1.62426e-13   -2.39031e-13   -2.39031e-13
   11900        23.8    0.845279     3.41321    -1099.03     323.319    -775.711    -1.7808e-13   -2.19602e-13   -2.19602e-13
   12000          24     0.83124     4.95468    -1093.66     317.949    -775.715   -1.89238e-13   -2.21601e-13   -2.21601e-13
   12100        24.2    0.873965     2.66799       -1110     334.292    -775.713   -2.02394e-13   -2.42528e-13   -2.42528e-13
   12200        24.4    0.877063     3.60115    -1111.19     335.476    -775.715   -1.82659e-13   -2.66356e-13   -2.66356e-13
   12300        24.6    0.756803     6.21496    -1065.18     289.477    -775.708   -1.65201e-13   -2.75779e-13   -2.75779e-13
   12400        24.8     0.87635     3.26524    -1110.91     335.204     -775.71   -1.61648e-13   -2.72893e-13   -2.72893e-13
   12500          25    0.833952     3.53611     -1094.7     318.986    -775.712   -1.68532e-13   -2.82996e-13   -2.82996e-13
   12600        25.2    0.819417     5.63974    -1089.13     313.427    -775.707   -1.56763e-13    -2.8777e-13    -2.8777e-13
   12700        25.4    0.845365     2.03223    -1099.06     323.352    -775.704   -1.42331e-13   -2.63012e-13   -2.63012e-13
   12800        25.6    0.854263     1.08157    -1102.47     326.755     -775.71    -1.2923e-13   -2.61707e-13   -2.61707e-13
   12900        25.8    0.796163     5.18191    -1080.23     304.532      -775.7   -1.09135e-13   -2.78444e-13   -2.78444e-13
   13000          26    0.810998     3.11519    -1085.91     310.207    -775.702   -9.11493e-14   -2.95763e-13   -2.95763e-13
   13100        26.2    0.816634     5.62788    -1088.06     312.363      -775.7   -8.78742e-14   -2.86104e-13   -2.86104e-13
   13200        26.4    0.806295     5.77976    -1084.11     308.408    -775.704   -7.52731e-14   -3.16303e-13   -3.16303e-13
   13300        26.6    0.845066       6.305    -1098.95     323.238    -775.708   -7.10543e-14   -3.06866e-13   -3.06866e-13
   13400        26.8    0.857372     3.80618    -1103.66     327.945    -775.715   -9.50906e-14   -2.81331e-13   -2.81331e-13
   13500          27    0.849891     2.93956    -1100.79     325.083    -775.706   -5.42899e-14   -2.70395e-13   -2.70395e-13
   13600        27.2     0.85825    0.654647    -1103.99     328.281    -775.712   -6.08402e-14   -2.80442e-13   -2.80442e-13
   13700        27.4    0.832307     3.37336    -1094.07     318.357    -775.716   -7.50511e-14   -2.95708e-13   -2.95708e-13
   13800        27.6    0.847979      2.8134    -1100.07     324.352    -775.713   -7.33857e-14   -3.05284e-13   -3.05284e-13
   13900        27.8     0.81641     3.65916    -1087.98     312.277    -775.702   -4.61853e-14   -2.99982e-13   -2.99982e-13
   14000          28     0.87494   0.0111215    -1110.39     334.665    -775.723    -2.9754e-14   -3.10578e-13   -3.10578e-13
   14100        28.2    0.849539     5.86641    -1100.65     324.949    -775.705   -1.59872e-14   -3.10862e-13   -3.10862e-13
   14200        28.4    0.839982     4.62521    -1097.01     321.293     -775.72   -4.44089e-14   -2.94598e-13   -2.94598e-13
   14300        28.6    0.835521     2.13429    -1095.29     319.587    -775.701   -7.36633e-14   -3.14471e-13   -3.14471e-13
   14400        28.8    0.863912      1.6598    -1106.16     330.446    -775.714   -7.11653e-14   -2.99649e-13   -2.99649e-13
   14500          29    0.845819      8.0286    -1099.23     323.526    -775.707   -8.92619e-14   -2.89546e-13   -2.89546e-13
   14600        29.2    0.809466     6.23938    -1085.33     309.621    -775.706    -7.9714e-14   -2.58571e-13   -2.58571e-13
   14700        29.4    0.801658     2.24612    -1082.35     306.634    -775.712   -4.91829e-14   -2.82607e-13   -2.82607e-13
   14800        29.6    0.835816     4.33173    -1095.39       319.7    -775.694   -5.70655e-14   -3.03757e-13   -3.03757e-13
   14900        29.8    0.794534     3.86999    -1079.62     303.909     -775.71   -4.39648e-14   -3.33844e-13   -3.33844e-13
   15000          30    0.855638     1.56668    -1102.99     327.281    -775.713   -6.10623e-14    -3.3662e-13    -3.3662e-13
   15100        30.2    0.850086     2.53985    -1100.86     325.158    -775.707   -4.75175e-14   -3.07088e-13   -3.07088e-13
   15200        30.4     0.84372     1.32373    -1098.43     322.723    -775.704   -3.64153e-14   -3.05922e-13   -3.05922e-13
   15300        30.6    0.854369     3.08533    -1102.51     326.796     -775.71   -4.34652e-14   -3.07088e-13   -3.07088e-13
   15400        30.8    0.809545      2.7515    -1085.36     309.651    -775.706   -4.00791e-14   -3.27072e-13   -3.27072e-13
   15500          31    0.874807     1.98893    -1110.32     334.614    -775.706   -2.95319e-14   -3.46861e-13   -3.46861e-13
   15600        31.2    0.840787     1.42613    -1097.31     321.601    -775.708   -2.36339e-14   -3.34621e-13   -3.34621e-13
   15700        31.4    0.782898     5.28098    -1075.15     299.458    -775.695   -1.70419e-14    -3.4811e-13    -3.4811e-13
   15800        31.6    0.882183     2.06934    -1113.15     337.435    -775.712   -4.08562e-14    -3.5294e-13    -3.5294e-13
   15900        31.8    0.853123     4.89355    -1102.03      326.32    -775.706   -3.32789e-14   -3.38063e-13   -3.38063e-13
   16000          32    0.815715     2.84695    -1087.71     312.011    -775.704   -3.37508e-14   -3.55826e-13   -3.55826e-13
   16100        32.2    0.853651    -1.36848    -1102.23     326.522    -775.705   -3.35287e-14   -3.65541e-13   -3.65541e-13
   16200        32.4    0.874555     1.20813    -1110.23     334.517     -775.71   -6.12288e-14   -3.68192e-13   -3.68192e-13
   16300        32.6    0.826817     2.88897    -1091.96     316.257    -775.706   -7.23865e-14   -3.65374e-13   -3.65374e-13
   16400        32.8    0.849482     2.67352    -1100.65     324.927    -775.721   -8.64864e-14   -3.45723e-13   -3.45723e-13
   16500          33    0.816722     8.42127     -1088.1     312.396    -775.706    -7.9714e-14   -3.52079e-13   -3.52079e-13
   16600        33.2    0.867153      2.8993     -1107.4     331.686    -775.715   -7.14984e-14   -3.75255e-13   -3.75255e-13
   16700        33.4    0.831056     7.73082    -1093.59     317.879    -775.707   -8.21565e-14    -3.8769e-13    -3.8769e-13
   16800        33.6    0.857748      5.0015     -1103.8     328.088    -775.716    -7.9714e-14    -3.8447e-13    -3.8447e-13
   16900        33.8    0.836963     3.95155    -1095.85     320.138    -775.715   -7.57172e-14   -3.76976e-13   -3.76976e-13
   17000          34    0.822996     4.39888    -1090.51     314.796    -775.711   -8.23785e-14   -3.61711e-13   -3.61711e-13
   17100        34.2    0.866028    0.478589    -1106.97     331.256    -775.711   -5.90639e-14   -3.53495e-13   -3.53495e-13
   17200        34.4    0.788818     4.30071    -1077.44     301.723    -775.714    -8.7208e-14   -3.50386e-13   -3.50386e-13
   17300        34.6     0.84878     3.58269    -1100.37     324.658    -775.708   -9.18154e-14   -3.39062e-13   -3.39062e-13
   17400        34.8    0.825357     3.04519    -1091.43     315.699    -775.726   -1.04083e-13   -3.33955e-13   -3.33955e-13
   17500          35    0.805214     3.87912    -1083.69     307.994    -775.696   -1.21902e-13   -3.17246e-13   -3.17246e-13
   17600        35.2    0.876561      2.1976       -1111     335.285    -775.718   -1.21209e-13   -3.02869e-13   -3.02869e-13
   17700        35.4    0.831156     2.28521    -1093.62     317.917    -775.705   -1.23013e-13   -3.07754e-13   -3.07754e-13
   17800        35.6    0.845115     1.24719    -1098.97     323.256    -775.716   -1.50324e-13   -3.07754e-13   -3.07754e-13
   17900        35.8    0.826904     5.07856       -1092     316.291    -775.713   -1.54987e-13   -3.20244e-13   -3.20244e-13
   18000          36    0.840202       4.396    -1097.08     321.377    -775.705    -1.2626e-13   -3.08642e-13   -3.08642e-13
   18100        36.2    0.818401     4.94834    -1088.75     313.038    -775.707    -1.1191e-13   -3.25517e-13   -3.25517e-13
   18200        36.4    0.851385     7.09693    -1101.36     325.655    -775.708   -1.23901e-13   -3.44336e-13   -3.44336e-13
   18300        36.6    0.812275     3.54871     -1086.4     310.695    -775.707   -1.30562e-13    -3.2898e-13    -3.2898e-13
   18400        36.8    0.860446     3.02711    -1104.83     329.121    -775.705   -1.15324e-13    -3.3154e-13    -3.3154e-13
   18500          37    0.872605    0.752757    -1109.48     333.771    -775.708   -1.19016e-13   -3.07754e-13   -3.07754e-13
   18600        37.2    0.837962     5.52905    -1096.23     320.521    -775.712   -1.28064e-13   -3.19744e-13   -3.19744e-13
   18700        37.4    0.854103     3.68224    -1102.41     326.694    -775.716   -1.28231e-13   -3.37952e-13   -3.37952e-13
   18800        37.6    0.822293     4.17118    -1090.23     314.527    -775.703   -1.33504e-13   -3.61267e-13   -3.61267e-13
   18900        37.8    0.763711     7.47185    -1067.82     292.119    -775.699   -1.08469e-13   -3.54661e-13   -3.54661e-13
   19000          38    0.804122      5.1656    -1083.28     307.577    -775.701   -1.12022e-13   -3.75699e-13   -3.75699e-13
   19100        38.2    0.814234     5.62347    -1087.15     311.445    -775.706   -1.03001e-13   -3.46834e-13   -3.46834e-13
   19200        38.4    0.875106     2.19477    -1110.43     334.728    -775.706   -1.05069e-13   -3.42837e-13   -3.42837e-13
   19300        38.6    0.852086      4.6225    -1101.64     325.923    -775.715   -9.04554e-14   -3.67151e-13   -3.67151e-13
   19400        38.8    0.834777     2.83296    -1095.01     319.302    -775.712   -9.86676e-14   -3.67484e-13   -3.67484e-13
   19500          39    0.851343     3.32198    -1101.35     325.639    -775.716   -1.09579e-13   -3.39617e-13   -3.39617e-13
   19600        39.2    0.844909     4.19199    -1098.88     323.178    -775.707   -1.28703e-13   -3.40117e-13   -3.40117e-13
   19700        39.4    0.850465    0.276656    -1101.01     325.303    -775.707   -1.35503e-13   -3.46168e-13   -3.46168e-13
   19800        39.6    0.795031     2.51694    -1079.81     304.099    -775.706   -1.37335e-13   -3.38396e-13   -3.38396e-13
   19900        39.8    0.838851     3.57802    -1096.57      320.86    -775.713   -1.23651e-13   -3.63265e-13   -3.63265e-13
   20000          40    0.878541   -0.211705    -1111.75     336.042    -775.711    -1.3034e-13   -3.42504e-13   -3.42504e-13
   20100        40.2    0.854328     2.40067    -1102.49      326.78    -775.711   -1.56763e-13   -3.45279e-13   -3.45279e-13
   20200        40.4      0.8709    0.883893    -1108.83     333.119    -775.712   -1.83853e-13   -3.54633e-13   -3.54633e-13
   20300        40.6    0.860986      2.4359    -1105.02     329.327    -775.692   -1.75859e-13   -3.41838e-13   -3.41838e-13
   20400        40.8    0.857245     3.28265     -1103.6     327.896    -775.705   -1.65201e-13   -3.65041e-13   -3.65041e-13
   20500          41    0.827766     4.33708    -1092.33      316.62    -775.708   -1.47382e-13   -3.59435e-13   -3.59435e-13
   20600        41.2    0.865486   -0.190162    -1106.77     331.048    -775.718   -1.57097e-13   -3.62155e-13   -3.62155e-13
   20700        41.4    0.874724   0.0106095     -1110.3     334.582    -775.719   -1.56986e-13   -3.63883e-13   -3.63883e-13
   20800        41.6    0.811588     2.73046    -1086.14     310.432    -775.712   -1.61871e-13    -3.4972e-13    -3.4972e-13
   20900        41.8    0.863474    0.357652    -1105.99     330.279     -775.71   -1.68421e-13   -3.75922e-13   -3.75922e-13
   21000          42    0.799836     2.00303    -1081.65     305.937     -775.71   -1.71252e-13   -3.67373e-13   -3.67373e-13
   21100        42.2     0.89646     1.01586    -1118.61     342.896     -775.71   -1.80522e-13   -3.70981e-13   -3.70981e-13
   21200        42.4    0.864453     1.35411    -1106.36     330.653    -775.707   -1.71418e-13   -4.01013e-13   -4.01013e-13
   21300        42.6    0.793604     4.58758    -1079.26     303.553    -775.703   -1.75582e-13   -3.98556e-13   -3.98556e-13
   21400        42.8    0.871025    -1.28224    -1108.89     333.167    -775.723   -1.72418e-13   -4.13447e-13   -4.13447e-13
   21500          43    0.834979     1.86296    -1095.09     319.379     -775.71   -1.73306e-13   -4.26548e-13   -4.26548e-13
   21600        43.2    0.862626    0.286716    -1105.67     329.954    -775.716   -1.65423e-13   -4.34486e-13   -4.34486e-13
   21700        43.4    0.831655      2.4807    -1093.82     318.108    -775.707   -1.77414e-13   -4.22655e-13   -4.22655e-13
   21800        43.6     0.85141     1.49804    -1101.37     325.664    -775.702   -1.68171e-13   -4.25882e-13   -4.25882e-13
   21900        43.8    0.840129     2.98755    -1097.05     321.349    -775.703   -1.45439e-13   -4.08784e-13   -4.08784e-13
   22000          44    0.827691     4.72206    -1092.29     316.592    -775.702   -1.58568e-13    -4.1217e-13    -4.1217e-13
   22100        44.2    0.843031     2.57742    -1098.17     322.459    -775.706   -1.50102e-13   -4.14779e-13   -4.14779e-13
   22200        44.4    0.814434     3.44745    -1087.22     311.521      -775.7   -1.52101e-13   -4.45644e-13   -4.45644e-13
   22300        44.6    0.834629     1.32758    -1094.95     319.246    -775.705    -1.5038e-13   -4.65628e-13   -4.65628e-13
   22400        44.8     0.84466     1.63461    -1098.79     323.082    -775.712   -1.48909e-13   -4.70957e-13   -4.70957e-13
   22500          45    0.860862    0.871376       -1105      329.28    -775.722   -1.53655e-13   -4.57245e-13   -4.57245e-13
   22600        45.2    0.849535    0.878378    -1100.65     324.947    -775.702   -1.54765e-13   -4.39648e-13   -4.39648e-13
   22700        45.4    0.803986     2.51616    -1083.23     307.525    -775.706   -1.35891e-13    -4.0945e-13    -4.0945e-13
   22800        45.6    0.846298    -1.28635    -1099.42     323.709    -775.706   -1.19016e-13   -4.18443e-13   -4.18443e-13
   22900        45.8    0.868078    0.624056    -1107.75      332.04    -775.709   -1.40589e-13   -4.03119e-13   -4.03119e-13
   23000          46    0.810754     2.58578    -1085.81     310.113    -775.699   -1.12077e-13   -3.81362e-13   -3.81362e-13
   23100        46.2    0.868732   -0.427157       -1108      332.29    -775.706   -1.20348e-13   -4.13003e-13   -4.13003e-13
   23200        46.4    0.794964     3.27882    -1079.79     304.074    -775.713   -1.37612e-13   -3.85858e-13   -3.85858e-13
   23300        46.6    0.814832    0.994554    -1087.39     311.673    -775.712     -1.249e-13   -3.78142e-13   -3.78142e-13
   23400        46.8    0.774246     1.88811    -1071.85     296.149    -775.699   -1.50213e-13   -3.80473e-13   -3.80473e-13
   23500          47    0.802538      3.2523    -1082.67     306.971    -775.702   -1.19793e-13   -3.72036e-13   -3.72036e-13
   23600        47.2     0.86117   -0.231307    -1105.11     329.397     -775.71   -1.18794e-13   -3.77809e-13   -3.77809e-13