       0           0         100     18.6359           0     316.215     316.215   -5.10703e-15    7.32747e-15    7.32747e-15
     100         0.2     100.042     18.1003    -888.737     316.348     -572.39   -1.15463e-14    2.33147e-15    2.33147e-15
     200         0.4     100.084     3.91784    -848.387     316.482    -531.905   -1.40998e-14    2.04281e-14    2.04281e-14
     300         0.6     100.046    -5.41459     -836.55     316.359    -520.191   -1.55431e-14    1.46549e-14    1.46549e-14
     400         0.8     100.021    -1.46136    -820.828     316.282    -504.546   -2.22045e-15    2.55351e-14    2.55351e-14
     500           1     99.9958     3.45219    -819.135     316.202    -502.933   -1.11022e-14    4.28546e-14    4.28546e-14
     600         1.2     100.015    -2.26427    -819.709     316.261    -503.448    1.70974e-14    3.96766e-14    3.96766e-14
     700         1.4     99.8678    -8.41552    -830.262     315.797    -514.465    5.77316e-15    2.16493e-14    2.16493e-14
     800         1.6     99.9733     1.33234    -825.542     316.131    -509.411    1.13243e-14    3.95239e-14    3.95239e-14
     900         1.8      100.13    -9.09004    -837.463     316.625    -520.838   -2.94209e-15    5.28466e-14    5.28466e-14
    1000           2     99.9547     20.1486    -792.916     316.072    -476.844    2.53131e-14    5.25847e-14    5.25847e-14
    1100         2.2     100.003    -5.99172    -830.663     316.223     -514.44    2.06501e-14    5.17364e-14    5.17364e-14
    1200         2.4     100.114    -11.0596    -832.277     316.574    -515.703    1.46549e-14    6.03961e-14    6.03961e-14
    1300         2.6     99.9757     7.61775    -803.349     316.138    -487.211    1.95399e-14    5.14033e-14    5.14033e-14
    1400         2.8     99.9974     8.77588     -801.99     316.207    -485.783    7.54952e-15    4.94049e-14    4.94049e-14
    1500           3     100.161     -4.7588     -827.93     316.724    -511.205    1.80966e-14     2.6229e-14     2.6229e-14
    1600         3.2     99.8082     1.95734    -821.371     315.608    -505.762     5.9952e-15    7.66054e-15    7.66054e-15
    1700         3.4      100.07   -0.108865    -810.505     316.438    -494.067    1.89293e-14   -9.60343e-15   -9.60343e-15
    1800         3.6     100.035    -4.58688    -811.551     316.325    -495.226    2.52021e-14    1.93179e-14    1.93179e-14
    1900         3.8     100.057    -10.2805    -824.032     316.395    -507.637    9.65894e-15    2.15938e-14    2.15938e-14
    2000           4     100.104    -2.78059    -819.193     316.544    -502.649    2.09832e-14    1.92207e-14    1.92207e-14
    2100         4.2      99.919     5.12951    -806.729     315.959     -490.77    2.57572e-14    3.95239e-14    3.95239e-14
    2200         4.4     100.098    -6.95221    -822.961     316.526    -506.434    2.70894e-14    6.61693e-14    6.61693e-14
    2300         4.6     99.9032    -4.60823    -821.159     315.909     -505.25    3.41949e-14    7.90479e-14    7.90479e-14
    2400         4.8     99.9532    -2.61662    -815.212     316.067    -499.145    7.77156e-16    8.38773e-14    8.38773e-14
    2500           5     100.063    -2.20373    -820.412     316.414    -503.998   -8.38218e-15    8.79297e-14    8.79297e-14
    2600         5.2      100.28     5.88518    -804.333     317.099    -487.234   -9.10383e-15    9.79217e-14    9.79217e-14
    2700         5.4     99.9849    -4.62139    -824.812     316.167    -508.645   -2.16493e-14    1.03494e-13    1.03494e-13
    2800         5.6     100.219    -4.24814    -815.677     316.906    -498.771    -2.9976e-14    9.73388e-14    9.73388e-14
    2900         5.8     99.9325    -11.9136    -832.906     316.002    -516.905   -2.93654e-14    1.11799e-13    1.11799e-13
    3000           6     100.021     2.58011    -824.596      316.28    -508.316   -2.64233e-14    1.25899e-13    1.25899e-13
    3100         6.2     100.116    -3.83169    -835.772     316.581     -519.19   -9.76996e-15     1.2923e-13     1.2923e-13
    3200         6.4     99.8854     -1.8333    -822.629     315.853    -506.776    2.94209e-15    1.06581e-13    1.06581e-13
    3300         6.6     100.067     7.86636    -807.515     316.427    -491.088   -1.19904e-14    1.12022e-13    1.12022e-13
    3400         6.8     99.9508    -13.1331    -837.176      316.06    -521.116   -1.88183e-14    1.20959e-13    1.20959e-13
    3500           7     100.121   -0.780373    -824.661     316.598    -508.064   -1.02141e-14    1.05804e-13    1.05804e-13
    3600         7.2     100.186    -8.69038    -831.409     316.803    -514.606   -1.84297e-14    1.01932e-13    1.01932e-13
    3700         7.4     100.003     3.42915    -820.967     316.223    -504.744   -4.32987e-15    1.14908e-13    1.14908e-13
    3800         7.6     99.9629     3.38739     -817.66     316.098    -501.562   -1.77636e-15    1.14367e-13    1.14367e-13
    3900         7.8      99.966    -9.31391    -830.633     316.107    -514.526    2.38698e-15    1.33837e-13    1.33837e-13
    4000           8     100.133    0.244095     -813.89     316.635    -497.255   -3.33067e-16    1.56597e-13    1.56597e-13
    4100         8.2     100.068    -7.56354    -828.211      316.43     -511.78    1.11022e-15    1.75193e-13    1.75193e-13
    4200         8.4     99.9156   -0.606364    -819.239     315.948     -503.29   -1.46549e-14    1.93401e-13    1.93401e-13
    4300         8.6     99.9417    -3.42722    -823.911     316.031     -507.88   -2.05391e-14    2.00284e-13    2.00284e-13
    4400         8.8     100.068    -0.46152    -812.429     316.429        -496   -8.88178e-15    2.20601e-13    2.20601e-13
    4500           9     100.054    -1.29962    -815.024     316.385     -498.64              0    2.10137e-13    2.10137e-13
    4600         9.2     99.9478     1.56306    -820.425      316.05    -504.375     1.9984e-15    2.05835e-13    2.05835e-13
    4700         9.4     99.7958    -4.25703    -834.137     315.569    -518.568    1.76248e-14    1.97731e-13    1.97731e-13
    4800         9.6       100.1     5.81247    -838.141     316.532    -521.609    1.61537e-14    1.82979e-13    1.82979e-13
    4900         9.8      100.01    -2.58832    -857.453     316.247    -541.206    -6.3595e-15    1.56763e-13    1.56763e-13
    5000          10     100.034     11.5011     -835.01     316.322    -518.688   -1.88738e-15     1.4444e-13     1.4444e-13
    5100        10.2     99.8853     13.6934    -838.309     315.852    -522.457    6.88338e-15    1.41371e-13    1.41371e-13
    5200        10.4     99.8779      1.8885    -850.237     315.829    -534.408    1.32117e-14    1.19904e-13    1.19904e-13
    5300        10.6     100.059    -2.59953    -848.501       316.4    -532.101    2.07612e-14    1.29785e-13    1.29785e-13
    5400        10.8     100.181     4.51113    -832.095     316.787    -515.308    8.65974e-15    1.46216e-13    1.46216e-13
    5500          11     99.8379     6.83021    -832.568     315.702    -516.865    1.42109e-14    1.58873e-13    1.58873e-13
    5600        11.2     100.149    -5.76442    -835.352     316.685    -518.667    1.05471e-14    1.25899e-13    1.25899e-13
    5700        11.4     99.8138   -0.327753    -824.398     315.626    -508.771    1.05471e-14    1.38733e-13    1.38733e-13
    5800        11.6     100.005    -6.33967    -827.371     316.231     -511.14      9.312e-15    1.58595e-13    1.58595e-13
    5900        11.8     100.117    -11.0859    -833.008     316.586    -516.422    9.90874e-15    1.19682e-13    1.19682e-13
    6000          12     99.9692    -6.34236    -823.477     316.118    -507.359   -8.54872e-15    1.19044e-13    1.19044e-13
    6100        12.2     100.075    -7.94411    -823.489     316.454    -507.036   -1.75415e-14    9.28146e-14    9.28146e-14
    6200        12.4     100.021     1.30793    -816.235     316.281    -499.954    2.13163e-14    9.63674e-14    9.63674e-14
    6300        12.6     99.9913    -11.0266    -838.414     316.188    -522.227    4.08562e-14    8.42937e-14    8.42937e-14
    6400        12.8     99.8987     12.0658    -814.791     315.895    -498.896    2.17118e-14    7.62307e-14    7.62307e-14
    6500          13     99.8575    -1.65874    -830.401     315.764    -514.636    4.06342e-14    6.88338e-14    6.88338e-14
    6600        13.2     99.9855     3.58239    -810.332     316.169    -494.163     4.4742e-14    7.36078e-14    7.36078e-14
    6700        13.4     99.9958    -5.02499    -818.796     316.202    -502.595    3.30846e-14    8.52651e-14    8.52651e-14
    6800        13.6     99.9878    -8.13069    -824.872     316.176    -508.696    4.57412e-14    8.29892e-14    8.29892e-14
    6900        13.8     99.9804     1.22416    -808.221     316.153    -492.068    5.65104e-14    7.23865e-14    7.23865e-14
    7000          14      99.973     4.72871    -794.638      316.13    -478.509    7.29417e-14    7.63833e-14    7.63833e-14
    7100        14.2     99.9609    -12.7997    -822.143     316.091    -506.052      8.471e-14     8.9706e-14     8.9706e-14
    7200        14.4     99.9924    -3.53029     -816.59     316.191    -500.399    7.61613e-14    8.01026e-14    8.01026e-14
    7300        14.6      100.02     13.3926    -794.085     316.277    -477.808    9.59788e-14    8.12961e-14    8.12961e-14
    7400        14.8       100.2    -4.54162    -820.668     316.847    -503.821     8.5737e-14    9.08162e-14    9.08162e-14
    7500          15      100.24     9.98125     -805.17     316.973    -488.197    9.17044e-14    1.00364e-13    1.00364e-13
    7600        15.2     100.017     -11.794    -835.597     316.269    -519.328    9.84768e-14    9.76996e-14    9.76996e-14
    7700        15.4     100.059     5.49994    -824.814     316.403    -508.411    1.22347e-13    8.92619e-14    8.92619e-14
    7800        15.6     99.9189     4.84718    -823.756     315.958    -507.797    1.23679e-13    8.12683e-14    8.12683e-14
    7900        15.8     100.009     2.80366    -828.914     316.243    -512.671    1.02807e-13     9.9476e-14     9.9476e-14
    8000          16     100.077    -7.06323    -834.293     316.458    -517.835    1.13687e-13    9.72555e-14    9.72555e-14
    8100        16.2     100.049    -4.17661    -833.051     316.369    -516.682    1.12799e-13    1.05249e-13    1.05249e-13
    8200        16.4     100.139    -6.00254    -818.753     316.655    -502.098     1.1896e-13     1.1946e-13     1.1946e-13
    8300        16.6      99.899    -1.75507    -812.379     315.896    -496.483    1.06359e-13    1.32783e-13    1.32783e-13
    8400        16.8     99.7477     2.18793    -812.032     315.417    -496.615    1.06914e-13      1.113e-13      1.113e-13
    8500          17     100.011    -13.1541    -827.914     316.251    -511.663    8.92619e-14    1.20348e-13    1.20348e-13
    8600        17.2     100.042    -1.32657    -815.616     316.348    -499.267    8.88178e-14    9.37028e-14    9.37028e-14
    8700        17.4     99.9405     10.6827    -809.368     316.027    -493.341    9.85878e-14    9.76441e-14    9.76441e-14
    8800        17.6       99.96     -3.6794    -830.111     316.089    -514.022     8.3461e-14    1.05999e-13    1.05999e-13
    8900        17.8     100.125    -4.90489    -843.037     316.612    -526.425    8.89983e-14    1.29341e-13    1.29341e-13
    9000          18     100.054     3.24649    -836.822     316.385    -520.438     1.0697e-13    9.79217e-14    9.79217e-14
    9100        18.2     100.011    -4.55527    -829.874     316.249    -513.625    1.37335e-13    1.18572e-13    1.18572e-13
    9200        18.4     99.8209      4.1892    -814.327     315.649    -498.678    1.68282e-13    9.05942e-14    9.05942e-14
    9300        18.6     100.188      4.3542    -812.391     316.808    -495.583    1.63203e-13    1.04916e-13    1.04916e-13
    9400        18.8     99.8262     3.22953    -808.516     315.665    -492.851    1.70641e-13    8.60423e-14    8.60423e-14
    9500          19     100.113     4.57333    -795.332     316.571    -478.761    1.61759e-13     8.4488e-14     8.4488e-14
    9600        19.2     99.9071     4.18995    -803.963     315.921    -488.042    1.55098e-13    7.71605e-14    7.71605e-14
    9700        19.4     100.134    -8.21157    -812.295     316.639    -495.657    1.43441e-13     7.2331e-14     7.2331e-14
    9800        19.6     99.9682    -1.33768    -811.937     316.114    -495.823    1.43885e-13    5.37348e-14    5.37348e-14
    9900        19.8     100.076     7.22092    -803.365     316.457    -486.908    1.28342e-13    5.97855e-14    5.97855e-14
   10000          20     99.7703    0.608573    -814.585     315.489    -499.097    1.31561e-13    7.81597e-14    7.81597e-14
   10100        20.2       100.1     -4.5536    -818.258     316.531    -501.727    1.34448e-13    8.47655e-14    8.47655e-14
   10200        20.4     100.033    -9.19565     -831.15      316.32     -514.83    1.20126e-13    9.19265e-14    9.19265e-14
   10300        20.6     100.046    -6.81877    -834.987     316.361    -518.626    1.30784e-13    7.03881e-14    7.03881e-14
   10400        20.8     99.8559    -6.97473     -824.56     315.759    -508.801    1.23235e-13    8.28643e-14    8.28643e-14
   10500          21     100.022      2.6944    -814.154     316.286    -497.868    1.19682e-13    8.40925e-14    8.40925e-14
   10600        21.2     100.075    -11.1083    -834.801     316.451     -518.35    1.09246e-13    7.99361e-14    7.99361e-14
   10700        21.4     99.9632    -5.84368    -832.648     316.099    -516.549    1.25122e-13     7.9145e-14     7.9145e-14
   10800        21.6     99.9633    0.867653      -813.1     316.099    -497.001     1.2812e-13    5.68157e-14    5.68157e-14
   10900        21.8     100.141    -3.29868    -820.059     316.661    -503.399    1.33116e-13    6.15064e-14    6.15064e-14
   11000          22     100.056     5.63687    -807.396     316.393    -491.004    1.22347e-13    7.06102e-14    7.06102e-14
   11100        22.2     99.9407    -2.76283    -812.398     316.028    -496.371    1.54925e-13    6.17284e-14    6.17284e-14
   11200        22.4     100.118     6.90125    -793.379     316.587    -476.792     1.5217e-13    6.82232e-14    6.82232e-14
   11300        22.6     99.8278     2.45882      -813.9     315.671     -498.23    1.33671e-13     9.2093e-14     9.2093e-14
   11400        22.8     99.9178   -0.199044    -803.569     315.955    -487.614    1.24067e-13    8.34333e-14    8.34333e-14
   11500          23     100.013    -6.18513    -813.612     316.257    -497.355    1.14964e-13    9.89209e-14    9.89209e-14
   11600        23.2     100.085     2.07705    -801.228     316.485    -484.743    1.22818e-13    9.23706e-14    9.23706e-14
   11700        23.4     100.178    -2.21985    -818.004     316.776    -501.228    1.18461e-13    6.15064e-14    6.15064e-14
   11800        23.6     99.8296     12.2976    -805.344     315.676    -489.668    1.26565e-13    5.44009e-14    5.44009e-14
   11900        23.8      100.12   -0.469427     -815.24     316.596    -498.644    1.37501e-13    6.52811e-14    6.52811e-14
   12000          24     100.088     1.61116    -812.664     316.494     -496.17    1.29563e-13    6.52811e-14    6.52811e-14
   12100        24.2     99.9835    -1.02645    -815.401     316.163    -499.239    1.22846e-13    9.15379e-14    9.15379e-14
   12200        24.4     100.023     2.54425    -812.828     316.289    -496.538    1.18128e-13     9.9698e-14     9.9698e-14
   12300        24.6       99.82     7.69513    -819.188     315.646    -503.542    1.30208e-13    1.13909e-13    1.13909e-13
   12400        24.8     99.7984     10.3052     -821.36     315.578    -505.783    1.19682e-13    1.02918e-13    1.02918e-13
   12500          25     100.063     8.64483    -820.404     316.415     -503.99    1.19682e-13    9.70335e-14    9.70335e-14
   12600        25.2     100.094     8.14339    -833.396     316.513    -516.883    1.08136e-13    8.79297e-14    8.79297e-14
   12700        25.4     99.9414      4.0926    -826.055      316.03    -510.026    1.13909e-13    1.05804e-13    1.05804e-13
   12800        25.6     99.7903     13.4965    -817.264     315.552    -501.712    1.13909e-13    1.12466e-13    1.12466e-13
   12900        25.8     100.171     8.85855    -845.926     316.754    -529.172    1.16795e-13     1.0221e-13     1.0221e-13
   13000          26     99.9951     5.73496     -833.29     316.199     -517.09    1.32783e-13     1.0969e-13     1.0969e-13
   13100        26.2     100.096     5.72562      -820.3     316.518    -503.783    1.43885e-13    1.12133e-13    1.12133e-13
   13200        26.4     99.9615    -2.22831    -831.141     316.093    -515.047    1.36779e-13    1.06137e-13    1.06137e-13
   13300        26.6      100.05    -13.7369     -846.65     316.374    -530.276    1.08635e-13    9.46188e-14    9.46188e-14
   13400        26.8     100.126     6.88527    -824.018     316.613    -507.405    1.13159e-13    9.18154e-14    9.18154e-14
   13500          27     100.071    -9.05133    -854.051      316.44    -537.612    1.08691e-13    1.03945e-13    1.03945e-13
   13600        27.2     99.8526    -5.11049     -838.51     315.749    -522.761    9.42579e-14    1.16906e-13    1.16906e-13
   13700        27.4     100.079     7.28989    -834.358     316.465    -517.893    9.75886e-14    1.39111e-13    1.39111e-13
   13800        27.6     99.9843     7.58812    -839.468     316.165    -523.303    9.17044e-14     1.4011e-13     1.4011e-13
   13900        27.8     99.8977     3.89644    -828.204     315.892    -512.312    8.77076e-14     1.4011e-13     1.4011e-13
   14000          28     99.9081    -1.83188    -828.549     315.925    -512.624    8.84119e-14    1.41609e-13    1.41609e-13
   14100        28.2     100.054    -4.05651    -843.753     316.386    -527.367    9.60135e-14    1.30118e-13    1.30118e-13
   14200        28.4     99.9597     5.38239     -829.93     316.088    -513.842    1.00031e-13    1.41276e-13    1.41276e-13
   14300        28.6      99.821     13.9587    -815.262     315.649    -499.613    1.13132e-13    1.51545e-13    1.51545e-13
   14400        28.8     99.9814     -4.1073    -842.497     316.156    -526.341    1.12632e-13    1.35836e-13    1.35836e-13
   14500          29     99.9352     2.99044    -833.815      316.01    -517.805    1.29785e-13      1.395e-13      1.395e-13
   14600        29.2     100.099    -6.33328      -836.8     316.527    -520.273     1.1724e-13    1.45793e-13    1.45793e-13
   14700        29.4     99.8268    -1.09309    -825.322     315.667    -509.654    1.05027e-13    1.54203e-13    1.54203e-13
   14800        29.6     100.076     9.20146    -816.844     316.456    -500.389    9.41469e-14    1.68199e-13    1.68199e-13
   14900        29.8     99.9421    -1.39493    -826.438     316.032    -510.406    1.14353e-13    1.48881e-13    1.48881e-13
   15000          30     99.7286   -0.859558    -810.387     315.357     -495.03    1.15352e-13     1.5965e-13     1.5965e-13
   15100        30.2     100.177     6.55476    -808.931     316.775    -492.156    1.22957e-13    1.91291e-13    1.91291e-13
   15200        30.4     99.8952    -7.33377    -811.505     315.884    -495.621    1.36002e-13    1.84519e-13    1.84519e-13
   15300        30.6     100.059     -3.6099    -804.876     316.402    -488.474    1.21014e-13    1.88516e-13    1.88516e-13
   15400        30.8     100.028      4.8395    -806.235     316.305    -489.931    1.10134e-13    1.87295e-13    1.87295e-13
   15500          31     100.054    -16.6882    -834.259     316.386    -517.873    9.03722e-14    1.84672e-13    1.84672e-13
   15600        31.2     99.9691     3.10655    -824.922     316.117    -508.805    8.53068e-14    1.82437e-13    1.82437e-13
   15700        31.4     99.8274    -9.84514    -840.191     315.669    -524.522    9.01501e-14    1.63522e-13    1.63522e-13
   15800        31.6     99.9967     -6.4792      -835.6     316.204    -519.395    1.04361e-13     1.8946e-13     1.8946e-13
   15900        31.8     100.002    -1.65251    -826.814     316.222    -510.592    1.11244e-13    1.75247e-13    1.75247e-13
   16000          32     99.9441     12.9817    -800.068     316.038     -484.03    1.26343e-13    1.86406e-13    1.86406e-13
   16100        32.2     99.9781    -4.61283    -805.309     316.146    -489.163     1.1191e-13    1.70863e-13    1.70863e-13
   16200        32.4     100.087     6.41174    -790.564     316.491    -474.073    1.32561e-13     1.7808e-13     1.7808e-13
   16300        32.6     99.8007       -16.6    -828.446     315.585    -512.862    1.04416e-13    1.51379e-13    1.51379e-13
   16400        32.8      99.993    -8.03346    -823.932     316.193    -507.739    1.11799e-13    1.52545e-13    1.52545e-13
   16500          33     100.195     7.51393    -799.576     316.832    -482.744     1.0858e-13    1.75415e-13    1.75415e-13
   16600        33.2     100.197     5.52401    -807.896     316.836     -491.06    1.29508e-13    1.80744e-13    1.80744e-13
   16700        33.4     100.052     3.38796    -797.922      316.38    -481.541    1.34878e-13    1.68865e-13    1.68865e-13
   16800        33.6     99.6609     9.79924    -791.101     315.143    -475.959    1.35558e-13    1.78746e-13    1.78746e-13
   16900        33.8      100.04     5.34163    -803.152     316.343    -486.808     1.2057e-13    1.87184e-13    1.87184e-13
   17000          34     99.9313     3.14259    -802.142     315.998    -486.144    1.33005e-13    2.01839e-13    2.01839e-13
   17100        34.2     99.9893    -9.75208    -822.743     316.181    -506.562    1.19238e-13    1.89404e-13    1.89404e-13
   17200        34.4     99.9643     8.55994    -799.989     316.102    -483.887    1.39666e-13    2.05447e-13    2.05447e-13
   17300        34.6       99.93    -3.12921    -821.611     315.994    -505.617    1.32783e-13    1.90958e-13    1.90958e-13
   17400        34.8      100.15     -4.9149    -808.439      316.69     -491.75    1.25233e-13    1.90334e-13    1.90334e-13
   17500          35     100.027     11.1793    -795.237     316.301    -478.937     1.1191e-13    2.04725e-13    2.04725e-13
   17600        35.2     99.9836     15.2785    -801.173     316.163     -485.01    1.25233e-13    2.19567e-13    2.19567e-13
   17700        35.4     100.164      3.1088    -814.109     316.733    -497.376    1.24178e-13    2.11497e-13    2.11497e-13
   17800        35.6     99.9684     11.5856    -805.562     316.115    -489.447    1.31561e-13    2.25375e-13    2.25375e-13
   17900        35.8     99.8514     3.43637    -822.278     315.745    -506.533    1.29008e-13    2.04198e-13    2.04198e-13
   18000          36     100.154     3.13089    -818.068     316.701    -501.367    1.18572e-13    2.19602e-13    2.19602e-13
   18100        36.2     100.216     4.11763    -815.023     316.898    -498.126    1.35447e-13    2.20102e-13    2.20102e-13
   18200        36.4     100.036    -12.7116     -835.61     316.328    -519.282    1.26787e-13    2.00666e-13    2.00666e-13
   18300        36.6     100.175     8.45571    -790.009     316.768    -473.241    1.81632e-13    2.20657e-13    2.20657e-13
   18400        36.8     99.9795    -3.28957     -801.36      316.15     -485.21    1.82465e-13    2.05724e-13    2.05724e-13
   18500          37      99.884    -7.86239    -803.315     315.848    -487.467    1.64313e-13    2.29039e-13    2.29039e-13
   18600        37.2     99.9476      5.3851    -791.901     316.049    -475.852    1.74971e-13    2.44374e-13    2.44374e-13
   18700        37.4     100.081    -4.99238    -816.023     316.472    -499.551    1.83631e-13     2.2804e-13     2.2804e-13
   18800        37.6     99.9912    -10.8317    -815.525     316.187    -499.338    1.96287e-13    1.93512e-13    1.93512e-13
   18900        37.8     99.9268      5.2837    -794.828     315.984    -478.844    2.29539e-13    2.25708e-13    2.25708e-13
   19000          38     99.9934     2.43963    -815.185     316.194     -498.99    2.04503e-13    1.98841e-13    1.98841e-13
   19100        38.2     100.187       23.83    -775.585     316.805     -458.78    2.24709e-13     2.3398e-13     2.3398e-13
   19200        38.4     99.8122    -0.69983    -814.043     315.621    -498.422    2.02616e-13    2.13995e-13    2.13995e-13
   19300        38.6     100.009    -8.32899    -823.673     316.245    -507.428    2.13995e-13    2.10054e-13    2.10054e-13
   19400        38.8     100.161    0.493151    -810.174     316.724     -493.45    2.13607e-13    2.24092e-13    2.24092e-13
   19500          39     99.9136     4.11174    -809.483     315.942    -493.542    2.15827e-13    2.23627e-13    2.23627e-13
   19600        39.2     99.9585    -1.83094    -812.371     316.084    -496.288    2.11976e-13    2.19935e-13    2.19935e-13
   19700        39.4     99.9389     3.61914    -801.673     316.022    -485.651    2.26097e-13    2.45262e-13    2.45262e-13
   19800        39.6     100.089    -10.0827    -822.171     316.496    -505.675    1.99118e-13    2.06946e-13    2.06946e-13
   19900        39.8     100.068    -5.37542    -816.368      316.43    -499.938    2.26985e-13    2.32203e-13    2.32203e-13
   20000          40     99.9226    -2.26191    -809.491      315.97    -493.521    2.14273e-13     2.3781e-13     2.3781e-13
   20100        40.2     100.022     8.27202    -796.525     316.286    -480.239    2.13385e-13    2.40252e-13    2.40252e-13
   20200        40.4     100.081    -5.91679    -809.373     316.471    -492.902    2.09638e-13    2.25819e-13    2.25819e-13
   20300        40.6     100.039    -2.47176    -800.769     316.339    -484.429    2.13163e-13     2.5413e-13     2.5413e-13
   20400        40.8     99.8981    -10.5472    -816.998     315.893    -501.105    1.85046e-13    2.26374e-13    2.26374e-13
   20500          41     100.128     -7.1754    -823.303     316.619    -506.684    1.85851e-13    1.99951e-13    1.99951e-13
   20600        41.2     99.8484     1.40982    -819.096     315.736    -503.361    1.97176e-13    2.12275e-13    2.12275e-13
   20700        41.4     99.9107    -8.34252    -828.549     315.933    -512.616    2.02116e-13    2.16716e-13    2.16716e-13
   20800        41.6     100.029    -7.78525    -822.367     316.308    -506.058    1.78024e-13    2.14495e-13    2.14495e-13
   20900        41.8     100.069     3.52009    -801.227     316.434    -484.793    1.88627e-13    2.18492e-13    2.18492e-13
   21000          42     100.046     3.17449    -800.075     316.361    -483.714    2.17382e-13    2.25375e-13    2.25375e-13
   21100        42.2     99.9184    -5.60191    -817.208     315.957    -501.251    2.08389e-13     2.0961e-13     2.0961e-13
   21200        42.4     100.008     6.12441    -792.372      316.24    -476.132    2.20601e-13    2.13381e-13    2.13381e-13
   21300        42.6     100.141     1.28123     -810.23     316.662    -493.568      2.085e-13    2.42806e-13    2.42806e-13
   21400        42.8     100.071    -9.89578    -821.056     316.439    -504.617    1.98619e-13    2.40752e-13    2.40752e-13
   21500          43     100.132    -1.54814    -806.221     316.632    -489.589    2.08278e-13    2.47802e-13    2.47802e-13
   21600        43.2     99.8514     5.21676    -791.966     315.745    -476.221    2.23377e-13    2.59903e-13    2.59903e-13
   21700        43.4     99.9692    -12.2832    -817.594     316.117    -501.476     2.3892e-13    2.35031e-13    2.35031e-13
   21800        43.6     99.8741   -0.316553    -801.821     315.817    -486.004    2.46025e-13    2.38032e-13    2.38032e-13
   21900        43.8     99.8969    -2.67774    -806.573     315.889    -490.684    2.32009e-13    2.40197e-13    2.40197e-13
   22000          44     100.032    -9.60042     -807.76     316.316    -491.443    2.42417e-13    2.22045e-13    2.22045e-13
   22100        44.2     100.019     4.11203    -801.288     316.274    -485.014    2.30704e-13    2.43638e-13    2.43638e-13
   22200        44.4     99.9038    -2.90844    -810.799     315.911    -494.888    2.16327e-13     2.6823e-13     2.6823e-13
   22300        44.6     99.9823      5.2838    -806.587     316.159    -490.428    2.30038e-13    2.48135e-13    2.48135e-13
   22400        44.8     99.9781    -6.94277    -819.334     316.146    -503.188     2.2593e-13    2.35201e-13    2.35201e-13
   22500          45     99.9644     -11.611    -816.073     316.102    -499.971    2.38365e-13    2.26708e-13    2.26708e-13
   22600        45.2     100.131     0.55295    -808.151     316.628    -491.523     2.5277e-13    2.29011e-13    2.29011e-13
   22700        45.4     99.9845    0.757923    -808.245     316.166    -492.079    2.42029e-13    2.27596e-13    2.27596e-13
   22800        45.6     99.9811      1.6013    -804.138     316.155    -487.982    2.30038e-13    2.02838e-13    2.02838e-13
   22900        45.8     99.9542    -1.05519    -809.533      316.07    -493.463    2.18936e-13    2.03393e-13    2.03393e-13
   23000          46     100.062    -3.36918    -816.395     316.411    -499.984    2.06724e-13    1.87184e-13    1.87184e-13
   23100        46.2     100.105     10.3799    -812.129     316.548     -495.58    2.08278e-13    1.92069e-13    1.92069e-13
   23200        46.4     100.065     2.40742    -825.173      316.42    -508.752    1.99285e-13     2.0095e-13     2.0095e-13
   23300        46.6     100.036     3.53444    -823.634     316.327    -507.306    1.97398e-13    1.95274e-13    1.95274e-13
   23400        46.8      99.955     6.24743    -822.418     316.073    -506.345    2.12941e-13    1.92305e-13    1.92305e-13
   23500          47     99.8918    -6.12681    -824.931     315.873    -509.058    2.14051e-13    1.74749e-13    1.74749e-13
   23600        47.2     99.8806     2.74116    -818.474     315.837    -502.637    2.26819e-13    1.71418e-13    1.71418e-13
   23700        47.4     99.9394    -9.16174    -825.127     316.023    -509.104    2.20712e-13    1.96509e-13    1.96509e-13