       0           0         129   -0.122538           0     407.917     407.917    1.33227e-15   -1.55431e-15   -1.55431e-15
     100         0.2     105.186     1.20819    -1121.16     332.614     -788.55    7.10196e-15    1.76525e-14    1.76525e-14
     200         0.4     103.832     1.37256    -1116.87     328.333    -788.539    1.39888e-14    1.86517e-14    1.86517e-14
     300         0.6     96.7267     1.72429    -1094.39     305.864    -788.528   -1.06581e-14    5.32907e-15    5.32907e-15
     400         0.8     99.3172     1.62251     -1102.6     314.056    -788.541    2.08722e-14    4.07452e-14    4.07452e-14
     500           1     104.401     1.42437    -1118.68     330.131    -788.546   -1.07692e-14    5.58859e-14    5.58859e-14
     600         1.2     98.1732     1.60194    -1098.98     310.438    -788.541   -3.61378e-14    4.51028e-14    4.51028e-14
     700         1.4     100.801     1.41359    -1107.29     318.747    -788.542   -5.52891e-14    4.45477e-14    4.45477e-14
     800         1.6      102.89     1.37611    -1113.91     325.352    -788.557   -6.71685e-14    7.40831e-14    7.40831e-14
     900         1.8     103.703     1.44707    -1116.48     327.923    -788.552   -7.42739e-14    8.00471e-14    8.00471e-14
    1000           2     102.592     1.29899    -1112.95      324.41    -788.537   -1.03473e-13    6.65024e-14    6.65024e-14
    1100         2.2     93.6376     1.75046    -1084.64     296.096    -788.541   -6.72795e-14     5.4623e-14     5.4623e-14
    1200         2.4     101.347     1.43515    -1109.02     320.473    -788.546   -6.03961e-14    4.10783e-14    4.10783e-14
    1300         2.6     99.0622     1.64381     -1101.8      313.25    -788.548   -6.94445e-14    7.03881e-14    7.03881e-14
    1400         2.8     104.731       1.367    -1119.72     331.174    -788.551   -6.81677e-14    5.87308e-14    5.87308e-14
    1500           3     98.9928     1.64292    -1101.57      313.03    -788.539   -3.68594e-14    5.70655e-14    5.70655e-14
    1600         3.2     97.5097     1.76397    -1096.89      308.34    -788.552   -4.87388e-14    7.31221e-14    7.31221e-14
    1700         3.4     103.208     1.42009    -1114.91     326.361    -788.547   -3.64708e-14    7.76046e-14    7.76046e-14
    1800         3.6     105.201     1.35813    -1121.21     332.663    -788.547   -2.32037e-14    5.29785e-14    5.29785e-14
    1900         3.8     101.645     1.51216    -1109.96     321.418    -788.543    -6.4615e-14    7.53599e-14    7.53599e-14
    2000           4     99.8556     1.60709     -1104.3     315.758    -788.541    -3.9968e-14    7.50511e-14    7.50511e-14
    2100         4.2     98.5431     1.51331    -1100.15     311.608     -788.54   -2.39808e-14    6.57252e-14    6.57252e-14
    2200         4.4     97.0537     1.74628    -1095.44     306.899    -788.543   -1.59595e-14    3.82472e-14    3.82472e-14
    2300         4.6     98.3451     1.64485    -1099.52     310.982    -788.543   -3.55271e-14    3.71925e-14    3.71925e-14
    2400         4.8     97.5241     1.71616    -1096.93     308.386    -788.545   -3.73035e-14    1.80411e-14    1.80411e-14
    2500           5      100.69     1.47313    -1106.94     318.396    -788.543   -3.73035e-14    2.44249e-14    2.44249e-14
    2600         5.2     96.5349     1.69504     -1093.8     305.258    -788.537    -2.9754e-14    8.77076e-15    8.77076e-15
    2700         5.4      102.34     1.36429    -1112.16     323.616    -788.549   -5.95635e-14   -3.55271e-15   -3.55271e-15
    2800         5.6     99.9043     1.43752    -1104.46     315.912    -788.545   -9.56735e-14    1.66533e-15    1.66533e-15
    2900         5.8     101.425     1.56244    -1109.27      320.72    -788.548   -8.41549e-14   -7.10543e-15   -7.10543e-15
    3000           6      101.09     1.42983    -1108.21     319.662     -788.55   -7.09433e-14   -6.66134e-15   -6.66134e-15
    3100         6.2     96.7699     1.66169    -1094.54     306.001    -788.542   -8.72635e-14    8.65974e-15    8.65974e-15
    3200         6.4     98.1153     1.58668    -1098.79     310.255     -788.54   -7.38853e-14   -1.54807e-14   -1.54807e-14
    3300         6.6     102.896     1.27226    -1113.91     325.373    -788.539   -6.30607e-14    -2.4869e-14    -2.4869e-14
    3400         6.8     99.8798     1.53093    -1104.37     315.835    -788.539   -7.77156e-14   -3.31957e-14   -3.31957e-14
    3500           7     97.2725     1.67978    -1096.13      307.59    -788.541   -6.93889e-14   -2.19824e-14   -2.19824e-14
    3600         7.2     97.3843     1.64867     -1096.5     307.944    -788.552   -7.57172e-14   -3.29736e-14   -3.29736e-14
    3700         7.4     97.9347     1.72554    -1098.23     309.684    -788.543   -7.99638e-14   -3.41949e-14   -3.41949e-14
    3800         7.6     96.0386     1.82353    -1092.23     303.688     -788.54   -5.90951e-14   -2.30926e-14   -2.30926e-14
    3900         7.8     93.6025     1.85416    -1084.53     295.985    -788.546    -8.9484e-14    -1.9984e-14    -1.9984e-14
    4000           8     95.4806      1.7044    -1090.46     301.924    -788.536   -8.26006e-14    4.66294e-15    4.66294e-15
    4100         8.2     99.5061     1.47127     -1103.2     314.653    -788.546   -8.64864e-14   -1.66533e-14   -1.66533e-14
    4200         8.4     96.8245     1.63565    -1094.72     306.174    -788.547   -9.97258e-14    -1.4988e-14    -1.4988e-14
    4300         8.6     96.9933     1.61103    -1095.24     306.708    -788.532   -1.06359e-13    1.04361e-14    1.04361e-14
    4400         8.8     104.946     1.18189    -1120.41     331.855    -788.551   -1.36238e-13    1.60982e-14    1.60982e-14
    4500           9     105.701     1.17557     -1122.8     334.243    -788.553   -1.41782e-13    1.74305e-14    1.74305e-14
    4600         9.2     98.6282     1.60041    -1100.42     311.877    -788.545   -1.35558e-13     -2.498e-14     -2.498e-14
    4700         9.4     100.976     1.43109    -1107.85     319.302    -788.545   -1.36835e-13   -3.68594e-14   -3.68594e-14
    4800         9.6     104.117     1.33371    -1117.78     329.233    -788.545   -1.25566e-13   -4.57967e-14   -4.57967e-14
    4900         9.8     103.689     1.47683    -1116.43      327.88    -788.553   -1.17018e-13   -3.78031e-14   -3.78031e-14
    5000          10     95.4582     1.87599    -1090.39     301.853    -788.536   -8.65974e-14   -2.84217e-14   -2.84217e-14
    5100        10.2     100.285     1.59479    -1105.66     317.115    -788.549   -8.33084e-14   -2.37588e-14   -2.37588e-14
    5200        10.4     104.777      1.2666    -1119.87      331.32    -788.548   -7.77226e-14   -3.60822e-14   -3.60822e-14
    5300        10.6     106.805     1.22123    -1126.28     337.733    -788.552   -8.30447e-14   -1.30451e-14   -1.30451e-14
    5400        10.8     103.371     1.31262    -1115.42     326.874    -788.542    -8.4821e-14   -1.57652e-14   -1.57652e-14
    5500          11     101.641     1.40762    -1109.96     321.406     -788.55   -8.63754e-14   -1.90958e-14   -1.90958e-14
    5600        11.2     100.452     1.39825    -1106.18     317.644    -788.539   -7.06102e-14   -3.06422e-14   -3.06422e-14
    5700        11.4     101.274     1.44728    -1108.79     320.243    -788.543   -7.63833e-14   -2.04836e-14   -2.04836e-14
    5800        11.6     107.877     1.18687    -1129.67     341.123    -788.549   -6.99441e-14   -1.93179e-14   -1.93179e-14
    5900        11.8     96.6065     1.54609    -1094.02     305.484    -788.535   -6.23945e-14   -3.19744e-14   -3.19744e-14
    6000          12     104.974     1.22661    -1120.49     331.945    -788.548   -6.07292e-14     -3.475e-14     -3.475e-14
    6100        12.2     98.7249     1.54612    -1100.73     312.183    -788.552   -5.30131e-14   -5.10703e-14   -5.10703e-14
    6200        12.4     94.8699     1.81533    -1088.54     299.993    -788.544   -3.40006e-14   -4.24522e-14   -4.24522e-14
    6300        12.6     97.8549     1.67154    -1097.97     309.432    -788.542   -4.36318e-14   -5.24025e-14   -5.24025e-14
    6400        12.8     97.4421     1.53611    -1096.67     308.127    -788.544   -5.19029e-14   -4.59632e-14   -4.59632e-14
    6500          13     99.3055     1.56481    -1102.56     314.019    -788.541      -6.95e-14   -5.14588e-14   -5.14588e-14
    6600        13.2     101.146     1.38427    -1108.39     319.839     -788.55   -4.59632e-14   -4.94049e-14   -4.94049e-14
    6700        13.4     98.4218     1.51199    -1099.76     311.224     -788.54    -1.5887e-14   -7.19425e-14   -7.19425e-14
    6800        13.6     94.4021     1.80795    -1087.05     298.514    -788.537   -2.96152e-14   -5.29576e-14   -5.29576e-14
    6900        13.8     100.258     1.46456    -1105.58     317.031    -788.549   -3.94129e-14   -5.27356e-14   -5.27356e-14
    7000          14     91.9493     1.92117     -1079.3     290.757    -788.542   -1.64313e-14   -4.26326e-14   -4.26326e-14
    7100        14.2     93.1299     1.79471    -1083.03     294.491    -788.539   -6.52256e-16   -4.86278e-14   -4.86278e-14
    7200        14.4     95.0674     1.69301    -1089.15     300.617    -788.536    8.99281e-15   -4.95159e-14   -4.95159e-14
    7300        14.6     98.5136     1.58871    -1100.07     311.515    -788.552    2.15106e-15   -3.43059e-14   -3.43059e-14
    7400        14.8     94.8333     1.82102    -1088.41     299.877    -788.538   -6.21725e-15   -3.96905e-14   -3.96905e-14
    7500          15      99.819     1.52135    -1104.19     315.643    -788.548    1.62093e-14    -5.3596e-14    -5.3596e-14
    7600        15.2     96.6083     1.59137    -1094.03      305.49    -788.536    1.78607e-14   -5.01821e-14   -5.01821e-14
    7700        15.4      106.69     1.11455    -1125.91     337.371    -788.543    1.82077e-14   -7.29937e-14   -7.29937e-14
    7800        15.6     104.262     1.24667    -1118.24     329.694    -788.547    1.39888e-14   -6.35048e-14   -6.35048e-14
    7900        15.8     101.696     1.32817    -1110.13     321.577    -788.548     3.9968e-15    -7.9492e-14    -7.9492e-14
    8000          16     104.868      1.1949    -1120.16     331.609    -788.547   -1.15463e-14   -5.67879e-14   -5.67879e-14
    8100        16.2     100.501     1.56572    -1106.34     317.798    -788.537     2.2482e-15   -5.28466e-14   -5.28466e-14
    8200        16.4     99.1181     1.60564    -1101.97     313.426    -788.539   -1.79856e-14   -7.06102e-14   -7.06102e-14
    8300        16.6     99.3799     1.55518     -1102.8     314.254    -788.546   -9.99201e-16   -6.09512e-14   -6.09512e-14
    8400        16.8     98.1983     1.69333    -1099.06     310.518    -788.543   -2.21489e-14   -4.08007e-14   -4.08007e-14
    8500          17     100.058     1.50695    -1104.94       316.4    -788.541    -9.4369e-15   -5.52614e-14   -5.52614e-14
    8600        17.2     103.996      1.2345     -1117.4     328.851    -788.545   -2.88658e-15   -4.61853e-14   -4.61853e-14
    8700        17.4     98.8006     1.58269    -1100.97     312.422    -788.545    5.32907e-15   -2.67564e-14   -2.67564e-14
    8800        17.6     102.158     1.39157    -1111.58      323.04    -788.543    1.33227e-14   -1.79856e-14   -1.79856e-14
    8900        17.8     99.7184     1.54834    -1103.87     315.325    -788.545    2.70756e-14   -3.13638e-14   -3.13638e-14
    9000          18     99.6749     1.48245    -1103.73     315.187    -788.545    1.99285e-14    -3.7359e-14    -3.7359e-14
    9100        18.2     97.0513     1.63932    -1095.43     306.891    -788.537    2.25098e-14   -2.90878e-14   -2.90878e-14
    9200        18.4      99.749     1.57295    -1103.96     315.421    -788.544    3.02935e-14    -3.5083e-14    -3.5083e-14
    9300        18.6     97.5969     1.54965    -1097.16     308.616    -788.542    2.17604e-14   -4.39648e-14   -4.39648e-14
    9400        18.8     96.5196     1.64936    -1093.76     305.209    -788.546   -1.56264e-14   -2.84217e-14   -2.84217e-14
    9500          19       99.42      1.5922    -1102.92     314.381    -788.543    1.11022e-14   -2.46747e-14   -2.46747e-14
    9600        19.2     102.938     1.39456    -1114.06     325.506     -788.55   -1.06581e-14   -9.82547e-15   -9.82547e-15
    9700        19.4     97.9018     1.49777    -1098.13      309.58    -788.548   -4.88498e-15   -8.88178e-15   -8.88178e-15
    9800        19.6     103.671     1.20864    -1116.37     327.822    -788.549   -1.53488e-14   -3.68316e-14   -3.68316e-14
    9900        19.8     95.7415     1.75156    -1091.28     302.749    -788.532   -8.43769e-15   -2.22045e-14   -2.22045e-14
   10000          20     100.203     1.47474    -1105.41     316.856     -788.55    1.11022e-16   -3.39728e-14   -3.39728e-14
   10100        20.2     97.6488     1.67147    -1097.33      308.78    -788.546    6.66134e-16   -1.63203e-14   -1.63203e-14
   10200        20.4     101.726     1.41407    -1110.23     321.674    -788.557    1.37668e-14   -9.99201e-15   -9.99201e-15
   10300        20.6     97.4482      1.6206    -1096.68     308.146    -788.533     2.2371e-14   -2.84217e-14   -2.84217e-14
   10400        20.8     97.6876     1.50292    -1097.45     308.903    -788.548    4.32987e-14   -3.95239e-14   -3.95239e-14
   10500          21     105.214      1.2495    -1121.25     332.703    -788.547    3.79696e-14   -3.93019e-14   -3.93019e-14
   10600        21.2     102.288     1.38226       -1112     323.449    -788.552    3.61933e-14   -1.69309e-14   -1.69309e-14
   10700        21.4     103.486     1.41004    -1115.79     327.238    -788.549    4.42979e-14    -4.4631e-14    -4.4631e-14
   10800        21.6     100.702     1.45027    -1106.98     318.434    -788.544    2.34118e-14   -3.09752e-14   -3.09752e-14
   10900        21.8     96.6991     1.75703    -1094.32     305.777    -788.544    2.35367e-14   -4.26326e-14   -4.26326e-14
   11000          22     102.534     1.38515    -1112.77     324.228    -788.544    4.01346e-14   -4.28546e-14   -4.28546e-14
   11100        22.2     101.106     1.41528    -1108.25     319.711    -788.539     2.9976e-14   -6.63913e-14   -6.63913e-14
   11200        22.4     103.729       1.308    -1116.55     328.005    -788.545    5.78981e-14   -6.28386e-14   -6.28386e-14
   11300        22.6      98.942     1.54328    -1101.41     312.869    -788.537    6.23945e-14   -6.21725e-14   -6.21725e-14
   11400        22.8     104.121     1.36662     -1117.8     329.247    -788.553    5.86198e-14   -8.23785e-14   -8.23785e-14
   11500          23     96.6569     1.69609    -1094.18     305.644    -788.536    3.05311e-14   -8.58202e-14   -8.58202e-14
   11600        23.2     101.763     1.54382    -1110.34     321.789    -788.549     3.4639e-14   -8.87346e-14   -8.87346e-14
   11700        23.4     99.7876     1.56076     -1104.1     315.543    -788.557    3.92741e-14   -8.54872e-14   -8.54872e-14
   11800        23.6     100.107     1.45268    -1105.09     316.555    -788.538    3.86913e-14   -8.06022e-14   -8.06022e-14
   11900        23.8     95.7034     1.67054    -1091.18     302.629     -788.55    4.37428e-14    -1.0475e-13    -1.0475e-13
   12000          24     100.897     1.45315     -1107.6      319.05    -788.549    7.68274e-14   -1.08469e-13   -1.08469e-13
   12100        24.2     102.628     1.33261    -1113.07     324.526    -788.546    7.02494e-14   -9.72555e-14   -9.72555e-14
   12200        24.4     97.4035     1.63637    -1096.55     308.005    -788.541    6.56142e-14   -1.14797e-13   -1.14797e-13
   12300        24.6     104.637     1.34018    -1119.43     330.877     -788.55    7.63833e-14   -9.89764e-14   -9.89764e-14
   12400        24.8     99.0929     1.69413     -1101.9     313.347     -788.55     7.9825e-14   -1.00142e-13   -1.00142e-13
   12500          25     94.4089     2.06797    -1087.09     298.535     -788.55    6.82787e-14   -1.05471e-13   -1.05471e-13
   12600        25.2     103.911     1.39404    -1117.13     328.583    -788.552    7.28168e-14   -7.26086e-14   -7.26086e-14
   12700        25.4     107.106     1.15802    -1127.23     338.684    -788.544    6.26166e-14   -5.09592e-14   -5.09592e-14
   12800        25.6     100.033     1.49181    -1104.87     316.321    -788.547    2.88658e-14   -5.01821e-14   -5.01821e-14
   12900        25.8     97.6012      1.6594    -1097.17      308.63    -788.545    4.24105e-14   -4.51167e-14   -4.51167e-14
   13000          26     98.4311     1.71598     -1099.8     311.254    -788.548    5.29576e-14   -4.46587e-14   -4.46587e-14
   13100        26.2     94.9356     1.77087    -1088.74     300.201    -788.544    4.04121e-14    -9.4369e-15    -9.4369e-15
   13200        26.4     96.3131     1.74118     -1093.1     304.556    -788.545    1.42109e-14   -2.35367e-14   -2.35367e-14
   13300        26.6     100.882     1.50557    -1107.55     319.003    -788.544    3.37508e-14   -1.83187e-14   -1.83187e-14
   13400        26.8     100.026     1.51494    -1104.85     316.298     -788.55    3.75255e-14   -1.38778e-14   -1.38778e-14
   13500          27       99.16     1.49119     -1102.1     313.559    -788.543    5.08205e-14   -1.39888e-14   -1.39888e-14
   13600        27.2     99.3736     1.58227    -1102.78     314.234    -788.545    4.95159e-14   -3.15303e-14   -3.15303e-14
   13700        27.4     98.1616     1.56148    -1098.95     310.402     -788.55    5.53169e-14   -3.68594e-14   -3.68594e-14
   13800        27.6     99.3063     1.57174    -1102.57     314.022    -788.549    6.32827e-14   -1.64799e-14   -1.64799e-14
   13900        27.8     96.4729     1.67558    -1093.61     305.062     -788.55    6.43929e-14   -2.70894e-14   -2.70894e-14
   14000          28      104.68     1.39385    -1119.56     331.014    -788.544    6.57807e-14    3.88578e-15    3.88578e-15
   14100        28.2     97.7013     1.73957    -1097.49     308.946     -788.54    7.93809e-14    3.19189e-15    3.19189e-15
   14200        28.4     106.985     1.06984    -1126.86     338.302    -788.554    4.73788e-14    8.88178e-16    8.88178e-16
   14300        28.6     103.528     1.47395    -1115.92     327.372     -788.55     6.4726e-14    2.45914e-14    2.45914e-14
   14400        28.8     95.8479     1.78954    -1091.64     303.085     -788.55    6.16174e-14    2.33147e-14    2.33147e-14
   14500          29     96.1551     1.62208    -1092.59     304.057    -788.536    7.85205e-14    5.55112e-15    5.55112e-15
   14600        29.2     94.3193     1.82438    -1086.79     298.252    -788.538    8.07132e-14    9.21485e-15    9.21485e-15
   14700        29.4     98.2463     1.68765    -1099.21     310.669    -788.544    9.34808e-14    3.68039e-14    3.68039e-14
   14800        29.6     99.5171     1.63493    -1103.23     314.688    -788.546    7.43849e-14    4.95992e-14    4.95992e-14
   14900        29.8     101.702     1.45629    -1110.15     321.597     -788.55    5.32491e-14    6.15896e-14    6.15896e-14
   15000          30     102.078     1.44713    -1111.34     322.787     -788.55    7.51066e-14    7.37466e-14    7.37466e-14
   15100        30.2     95.9261     1.83985    -1091.88     303.333    -788.546    9.05942e-14    7.83262e-14    7.83262e-14
   15200        30.4     99.4582     1.70073    -1103.05     314.502    -788.545    4.92939e-14     8.4821e-14     8.4821e-14
   15300        30.6     98.9199     1.74715    -1101.35       312.8    -788.547    6.41709e-14    9.25926e-14    9.25926e-14
   15400        30.8     96.1008     1.81728    -1092.43     303.885    -788.542    6.49064e-14    9.46465e-14    9.46465e-14
   15500          31     98.5735     1.65769    -1100.25     311.704    -788.546     4.9738e-14    7.59393e-14    7.59393e-14
   15600        31.2     96.6585     1.71204    -1094.19     305.649    -788.543    3.50553e-14     1.1191e-13     1.1191e-13
   15700        31.4     98.5551     1.58351    -1100.19     311.646    -788.548    7.65499e-14    1.00253e-13    1.00253e-13
   15800        31.6      98.779      1.6152     -1100.9     312.354    -788.546    6.05072e-14    1.15574e-13    1.15574e-13
   15900        31.8     100.565     1.62835    -1106.54     318.002    -788.542    6.83897e-14    1.21458e-13    1.21458e-13
   16000          32     95.2168     1.77644    -1089.63      301.09    -788.538    7.19702e-14    1.22347e-13    1.22347e-13
   16100        32.2      95.385     1.79224    -1090.17     301.622    -788.544    7.14567e-14    1.14353e-13    1.14353e-13
   16200        32.4     100.924     1.58817    -1107.68     319.138    -788.541    7.33302e-14    1.38778e-13    1.38778e-13
   16300        32.6     97.5492     1.66496    -1097.01     308.465    -788.544    9.15101e-14    1.32783e-13    1.32783e-13
   16400        32.8     106.194     1.21693    -1124.35     335.801    -788.551    1.03806e-13    1.40776e-13    1.40776e-13
   16500          33     97.2759     1.50039    -1096.13     307.601    -788.532    9.83102e-14    1.47216e-13    1.47216e-13
   16600        33.2     98.9969     1.63828    -1101.58     313.043    -788.541    9.74776e-14    1.35891e-13    1.35891e-13
   16700        33.4     99.5671     1.46278    -1103.39     314.846     -788.54    7.77156e-14    1.39083e-13    1.39083e-13
   16800        33.6     99.7527     1.47889    -1103.97     315.433    -788.542    5.61773e-14     1.3572e-13     1.3572e-13
   16900        33.8     98.6529     1.66039     -1100.5     311.955    -788.542    6.41709e-14    1.44389e-13    1.44389e-13
   17000          34     97.4138      1.5664    -1096.58     308.037    -788.543    3.60822e-14    1.32117e-13    1.32117e-13
   17100        34.2     106.981     1.10977    -1126.84     338.289    -788.548    3.54161e-14    1.51545e-13    1.51545e-13
   17200        34.4     100.585     1.50158    -1106.62     318.065    -788.556    3.71717e-14    1.47937e-13    1.47937e-13
   17300        34.6     104.314       1.177     -1118.4     329.856    -788.542    4.13558e-14    1.39444e-13    1.39444e-13
   17400        34.8       96.59     1.61549    -1093.97     305.432    -788.541    4.66294e-14     1.6287e-13     1.6287e-13
   17500          35     99.3932     1.44801    -1102.84     314.296    -788.544     3.9968e-14    1.68532e-13    1.68532e-13
   17600        35.2     97.8879     1.53572    -1098.09     309.536    -788.551    2.81442e-14    1.76748e-13    1.76748e-13
   17700        35.4     107.007     1.10208    -1126.92     338.372    -788.549    9.76996e-15    1.93845e-13    1.93845e-13
   17800        35.6     99.5018     1.52025    -1103.19      314.64    -788.547    2.75335e-14    1.46771e-13    1.46771e-13
   17900        35.8     96.4811     1.63679    -1093.63     305.088    -788.542    -6.6596e-15    1.53932e-13    1.53932e-13
   18000          36     98.5839     1.64491    -1100.29     311.737    -788.554    2.15383e-14    1.62315e-13    1.62315e-13
   18100        36.2     103.627     1.35523    -1116.23     327.684    -788.549   -6.63358e-15    1.73417e-13    1.73417e-13
   18200        36.4     103.236     1.42345       -1115     326.447    -788.548    7.66054e-15    1.73861e-13    1.73861e-13
   18300        36.6      102.66     1.33747    -1113.16     324.626    -788.535    3.08087e-15    1.80217e-13    1.80217e-13
   18400        36.8     96.3997     1.70197    -1093.38      304.83    -788.547   -1.43774e-14    2.02061e-13    2.02061e-13
   18500          37     96.8263     1.69879    -1094.71     306.179    -788.534    3.44169e-15    2.18769e-13    2.18769e-13
   18600        37.2     103.586     1.36795     -1116.1     327.555    -788.543   -6.05072e-15    2.06724e-13    2.06724e-13
   18700        37.4     98.4652     1.51619     -1099.9     311.362    -788.533    1.10467e-14    1.84075e-13    1.84075e-13
   18800        37.6      100.91     1.62211    -1107.64     319.092    -788.546    4.32987e-15    1.60899e-13    1.60899e-13
   18900        37.8     99.9609     1.53329    -1104.64     316.091    -788.551    -1.9984e-15    1.95177e-13    1.95177e-13
   19000          38     104.185     1.35504       -1118     329.448    -788.554    2.37692e-14    1.89015e-13    1.89015e-13
   19100        38.2     95.8689     1.79954    -1091.69     303.152     -788.54    2.12053e-14    1.76636e-13    1.76636e-13
   19200        38.4     103.539     1.27713    -1115.95     327.405    -788.545    1.82077e-14    1.90958e-13    1.90958e-13
   19300        38.6     103.302     1.25264     -1115.2     326.657     -788.54    3.65818e-14    1.96287e-13    1.96287e-13
   19400        38.8     94.4321     1.79612    -1087.14     298.609    -788.536    3.98293e-14    2.05613e-13    2.05613e-13
   19500          39     95.2142     1.78086    -1089.62     301.082    -788.541    1.57652e-14    2.13496e-13    2.13496e-13
   19600        39.2     102.567     1.51939    -1112.88     324.333     -788.55    1.79856e-14    2.00784e-13    2.00784e-13
   19700        39.4     98.8121      1.6933       -1101     312.459    -788.544    1.57652e-14     1.9762e-13     1.9762e-13
   19800        39.6     102.811     1.30488    -1113.64     325.103    -788.542   -6.21725e-15    2.29802e-13    2.29802e-13
   19900        39.8     99.2371     1.64111    -1102.34     313.803    -788.539    1.25455e-14    2.18492e-13    2.18492e-13
   20000          40     99.0001     1.66581    -1101.59     313.053    -788.534    2.21351e-15    2.17659e-13    2.17659e-13
   20100        40.2     98.5734     1.72405    -1100.25     311.704    -788.548   -2.19824e-14    1.82826e-13    1.82826e-13
   20200        40.4     97.9093     1.77242    -1098.14     309.604     -788.54   -6.21725e-15    2.04448e-13    2.04448e-13
   20300        40.6     96.5871     1.76648    -1093.97     305.423    -788.546   -3.38618e-14    2.06973e-13    2.06973e-13
   20400        40.8     99.2081     1.58249    -1102.26     313.711    -788.553   -3.98119e-14    1.72973e-13    1.72973e-13
   20500          41      101.87     1.49516    -1110.67     322.127    -788.548   -5.55112e-14    1.49821e-13    1.49821e-13
   20600        41.2     102.881     1.45442    -1113.87     325.326    -788.548   -5.79536e-14    1.69309e-13    1.69309e-13
   20700        41.4     97.0172     1.79019    -1095.34     306.783    -788.553   -4.57967e-14    1.63425e-13    1.63425e-13
   20800        41.6     99.7006     1.62776    -1103.81     315.268    -788.538   -7.16371e-14    1.83853e-13    1.83853e-13
   20900        41.8     101.275     1.55854     -1108.8     320.247     -788.55    -5.4956e-14    1.59872e-13    1.59872e-13
   21000          42     101.063     1.53818    -1108.11     319.576    -788.534   -4.55191e-14    1.64424e-13    1.64424e-13
   21100        42.2     102.551     1.38064    -1112.83      324.28    -788.547   -5.80785e-14     1.6484e-13     1.6484e-13
   21200        42.4     100.156     1.53414    -1105.26     316.708    -788.549   -5.57332e-14    1.87461e-13    1.87461e-13
   21300        42.6     97.1383     1.65733    -1095.71     307.166    -788.545   -8.02136e-14    1.77525e-13    1.77525e-13
   21400        42.8     99.1982     1.59457    -1102.23      313.68    -788.547   -9.10895e-14    2.03018e-13    2.03018e-13
   21500          43     98.6736     1.73044    -1100.57     312.021    -788.546   -9.81992e-14    1.87406e-13    1.87406e-13
   21600        43.2     98.8958     1.62095    -1101.27     312.723    -788.542   -1.08136e-13    1.97453e-13    1.97453e-13
   21700        43.4      100.09     1.43548    -1105.03     316.499    -788.533   -1.04083e-13    1.84408e-13    1.84408e-13
   21800        43.6     94.8525     1.63305    -1088.48     299.938     -788.54   -1.09024e-13    1.91736e-13    1.91736e-13
   21900        43.8     96.9707     1.61428    -1095.18     306.636    -788.543   -1.10578e-13    1.87184e-13    1.87184e-13
   22000          44      100.86     1.40141    -1107.48     318.935    -788.543   -1.11744e-13    1.98064e-13    1.98064e-13
   22100        44.2     96.8588      1.5959    -1094.82     306.282    -788.534   -1.14686e-13     1.9984e-13     1.9984e-13
   22200        44.4     97.1511     1.73371    -1095.75     307.206    -788.544      -1.39e-13    1.82743e-13    1.82743e-13
   22300        44.6     96.1864     1.71576     -1092.7     304.156    -788.543   -1.55875e-13    1.85629e-13    1.85629e-13
   22400        44.8     105.702     1.21237    -1122.79     334.245    -788.543    -1.5854e-13    2.09721e-13    2.09721e-13
   22500          45     102.452     1.45182    -1112.52     323.968    -788.548   -1.74083e-13    2.14384e-13    2.14384e-13
   22600        45.2     93.1435     1.88513    -1083.08     294.534    -788.542    -1.8896e-13    1.87406e-13    1.87406e-13
   22700        45.4     100.219     1.47654    -1105.45     316.907    -788.539   -1.55209e-13    1.76081e-13    1.76081e-13
   22800        45.6     97.2523     1.55661    -1096.07     307.526    -788.544   -1.58873e-13    2.21601e-13    2.21601e-13
   22900        45.8     101.078     1.47427    -1108.17     319.623    -788.551   -1.66422e-13    2.06113e-13    2.06113e-13
   23000          46     99.2299     1.57568    -1102.32      313.78     -788.54    -1.8463e-13    2.20157e-13    2.20157e-13
   23100        46.2     93.0059     2.04361    -1082.63     294.099    -788.536   -1.61426e-13    2.14384e-13    2.14384e-13
   23200        46.4     99.1981     1.59089    -1102.23     313.679    -788.553   -1.78968e-13    1.97065e-13    1.97065e-13
   23300        46.6     96.9925     1.79232    -1095.25     306.705    -788.547    -1.7053e-13     1.9118e-13     1.9118e-13
   23400        46.8     100.473     1.51592    -1106.25     317.711    -788.538   -1.69254e-13    1.68199e-13    1.68199e-13
   23500          47     96.7362     1.68731    -1094.44     305.894    -788.542   -1.73639e-13    1.60538e-13    1.60538e-13
   23600        47.2     99.3219      1.6132    -1102.61     314.071    -788.544   -1.92291e-13    1.66089e-13    1.66089e-13
   23700        47.4      104.83     1.38142    -1120.03     331.488    -788.543     -1.696e-13    1.55653e-13    1.55653e-13