       0           0         100     12.3658           0     316.215     316.215   -1.59872e-14   -8.88178e-15   -8.88178e-15
     100         0.2     99.9288    -3.48601    -951.239      315.99    -635.249    -2.4869e-14    1.77636e-15    1.77636e-15
     200         0.4      100.11     -13.222    -939.697     316.562    -623.136   -1.43496e-14   -1.17788e-14   -1.17788e-14
     300         0.6     99.9611    0.896858    -911.856     316.092    -595.764     2.9976e-15   -7.77156e-15   -7.77156e-15
     400         0.8     100.049     6.02576    -898.078      316.37    -581.708   -4.21885e-15   -2.44249e-15   -2.44249e-15
     500           1     99.9703     10.1494    -887.506     316.121    -571.385    3.23075e-14    5.55112e-15    5.55112e-15
     600         1.2     99.9323    -1.94477    -911.242     316.001    -595.241    7.99361e-15    8.77076e-15    8.77076e-15
     700         1.4     100.012    0.790312    -905.256     316.252    -589.004    1.16435e-14    1.10467e-14    1.10467e-14
     800         1.6     99.9943    -8.07602    -914.989     316.197    -598.793    2.79776e-14    2.19824e-14    2.19824e-14
     900         1.8     100.025     10.7679    -889.651     316.295    -573.355    2.91954e-14    3.59712e-14    3.59712e-14
    1000           2     99.8289     12.1023    -900.425     315.674    -584.751    2.57572e-14    4.11893e-14    4.11893e-14
    1100         2.2     100.018    0.792829    -906.444     316.272    -590.172    2.18159e-14    1.33851e-14    1.33851e-14
    1200         2.4     99.8992     8.11502    -901.718     315.896    -585.821    3.08087e-14    1.96509e-14    1.96509e-14
    1300         2.6     100.014     4.24746    -908.075     316.258    -591.817    4.75175e-14    5.67359e-14    5.67359e-14
    1400         2.8     99.9531    -7.14548    -923.976     316.067    -607.909    1.75415e-14    3.10307e-14    3.10307e-14
    1500           3      99.942     4.66767    -900.011     316.032    -583.979    2.74225e-14    9.54792e-15    9.54792e-15
    1600         3.2     100.067    -15.5068    -918.529     316.425    -602.103    2.88658e-14   -5.96745e-15   -5.96745e-15
    1700         3.4     100.126     11.4687    -887.216     316.613    -570.603    3.19467e-14   -1.40998e-14   -1.40998e-14
    1800         3.6     99.9162     10.0718    -892.378      315.95    -576.428    1.40721e-14   -1.22125e-14   -1.22125e-14
    1900         3.8     99.8752     17.9999    -891.389      315.82    -575.568    3.54716e-14    6.66134e-16    6.66134e-16
    2000           4      99.953     8.56337    -886.442     316.066    -570.376    3.95795e-14    1.44329e-14    1.44329e-14
    2100         4.2     99.9442     10.8708    -883.729     316.039    -567.691    4.71845e-14    3.66374e-15    3.66374e-15
    2200         4.4     99.9532    -10.7337     -909.85     316.067    -593.783    3.59157e-14   -7.77156e-15   -7.77156e-15
    2300         4.6     100.073    -3.68023    -906.123     316.447    -589.676    2.95319e-14   -2.28706e-14   -2.28706e-14
    2400         4.8      100.13    -2.44899    -908.157     316.625    -591.532    3.57492e-14    -1.9984e-14    -1.9984e-14
    2500           5     99.8576     10.4754    -889.005     315.765     -573.24     2.4869e-14   -3.88023e-14   -3.88023e-14
    2600         5.2     100.119     6.31526    -901.092      316.59    -584.501    4.04121e-14   -1.92069e-14   -1.92069e-14
    2700         5.4     100.136     6.85174    -885.134     316.644     -568.49    6.61693e-14    -2.2593e-14    -2.2593e-14
    2800         5.6     100.086     5.19956    -895.802     316.487    -579.315     6.9722e-14   -3.03091e-14   -3.03091e-14
    2900         5.8     100.073     11.5831    -891.308     316.444    -574.863    8.42382e-14   -2.55351e-14   -2.55351e-14
    3000           6     99.8863     3.42604    -901.013     315.855    -585.158    6.20476e-14   -4.02456e-14   -4.02456e-14
    3100         6.2     100.141    -5.64281    -905.311      316.66    -588.651    7.06102e-14   -5.01266e-14   -5.01266e-14
    3200         6.4     99.7734     3.48445    -894.869     315.498     -579.37    7.86038e-14   -3.86358e-14   -3.86358e-14
    3300         6.6     100.086      15.921    -872.889     316.488    -556.401    9.11771e-14   -2.73115e-14   -2.73115e-14
    3400         6.8     99.9405   -0.231986    -899.231     316.027    -583.204    7.81597e-14   -3.65541e-14   -3.65541e-14
    3500           7     99.9957     1.14519    -895.472     316.202    -579.271    9.01501e-14    -2.9865e-14    -2.9865e-14
    3600         7.2     100.139     6.84819    -903.037     316.655    -586.382    8.85958e-14   -1.59872e-14   -1.59872e-14
    3700         7.4     100.014     32.1505    -869.702     316.259    -553.443    7.90479e-14    -3.5083e-14    -3.5083e-14
    3800         7.6     99.8806     7.05521     -887.05     315.837    -571.212    6.55032e-14    -3.8608e-14    -3.8608e-14
    3900         7.8     99.9407     11.7035    -888.295     316.027    -572.268    6.79456e-14   -3.84692e-14   -3.84692e-14
    4000           8     99.9862    -2.82286     -903.35     316.171    -587.178    7.34968e-14   -3.83027e-14   -3.83027e-14
    4100         8.2     100.142    -9.95269     -908.91     316.663    -592.247    5.57887e-14   -4.29656e-14   -4.29656e-14
    4200         8.4      100.15     2.42294    -896.075     316.689    -579.385    5.87447e-14   -5.12923e-14   -5.12923e-14
    4300         8.6     100.119     7.76869    -893.847      316.59    -577.256    3.49165e-14   -3.19744e-14   -3.19744e-14
    4400         8.8     100.008     10.8722    -887.564     316.239    -571.325    3.98015e-14    -3.9968e-14    -3.9968e-14
    4500           9     99.8628   -0.422839     -892.53     315.781    -576.749    3.21965e-14   -3.35842e-14   -3.35842e-14
    4600         9.2     100.221    -3.81869    -888.052     316.914    -571.139    3.57492e-14   -7.01939e-14   -7.01939e-14
    4700         9.4     99.9178     5.39558    -891.537     315.955    -575.582    3.46806e-14   -7.99361e-14   -7.99361e-14
    4800         9.6     100.017      -7.367    -908.456     316.268    -592.188    1.83187e-14   -6.70991e-14   -6.70991e-14
    4900         9.8     100.253   -0.994052     -901.56     317.014    -584.546    3.67484e-14     -8.607e-14     -8.607e-14
    5000          10      99.922      10.512    -886.784     315.968    -570.815    4.61853e-14    -8.9706e-14    -8.9706e-14
    5100        10.2     100.109     1.12808    -896.836     316.559    -580.277    2.88658e-14   -1.14742e-13   -1.14742e-13
    5200        10.4       100.1      5.6625    -897.409     316.532    -580.878    1.54876e-14   -1.05027e-13   -1.05027e-13
    5300        10.6     100.131     5.77245    -900.468      316.63    -583.838    1.96509e-14   -1.04028e-13   -1.04028e-13
    5400        10.8     99.9367      17.807    -891.726     316.015    -575.711    2.09832e-14   -8.59313e-14   -8.59313e-14
    5500          11     99.9917     17.8189    -894.543     316.189    -578.354    2.66454e-14   -1.06914e-13   -1.06914e-13
    5600        11.2      99.933     15.1483    -904.526     316.003    -588.523    3.36398e-14   -9.14824e-14   -9.14824e-14
    5700        11.4     100.131    -0.42402    -909.372     316.629    -592.743    3.81362e-14   -7.88258e-14   -7.88258e-14
    5800        11.6     99.9435     9.44495    -895.098     316.036    -579.061    2.51188e-14   -7.67164e-14   -7.67164e-14
    5900        11.8     100.062     4.43342     -889.85     316.411     -573.44    3.24185e-14   -9.05942e-14   -9.05942e-14
    6000          12     100.195     1.57794    -880.934      316.83    -564.104     2.9754e-14   -9.03166e-14   -9.03166e-14
    6100        12.2     99.9808     7.51869    -883.192     316.154    -567.038    2.78666e-14   -9.68114e-14   -9.68114e-14
    6200        12.4     99.9624    -10.3072     -901.94     316.096    -585.844    1.93179e-14   -8.00471e-14   -8.00471e-14
    6300        12.6     99.9493    -5.18487    -902.147     316.055    -586.092    3.28626e-14   -1.09468e-13   -1.09468e-13
    6400        12.8      99.919     7.97052    -885.937     315.959    -569.979    5.40679e-14   -1.25011e-13   -1.25011e-13
    6500          13     99.8387     -1.8718    -898.859     315.705    -583.155    7.56617e-14   -1.39222e-13   -1.39222e-13
    6600        13.2     100.031     2.03156    -894.776     316.313    -578.463    9.41469e-14   -1.42553e-13   -1.42553e-13
    6700        13.4      100.04     20.8604    -871.482     316.341    -555.141    9.61453e-14   -1.70086e-13   -1.70086e-13
    6800        13.6     99.9565   -0.854115    -900.143     316.077    -584.066    7.35523e-14   -1.46327e-13   -1.46327e-13
    6900        13.8     99.9974     12.0294    -881.236     316.207    -565.029    7.54952e-14   -1.94261e-13   -1.94261e-13
    7000          14     99.9868    -14.6144    -914.585     316.173    -598.412       6.95e-14   -1.70974e-13   -1.70974e-13
    7100        14.2     99.9032     14.6702      -876.1     315.909    -560.191    6.47538e-14   -1.42872e-13   -1.42872e-13
    7200        14.4     99.9792     2.71625    -895.728     316.149    -579.579    4.36387e-14   -1.49436e-13   -1.49436e-13
    7300        14.6     99.9066    0.611552    -891.129      315.92    -575.209    5.83769e-14   -1.44773e-13   -1.44773e-13
    7400        14.8     99.8914     1.43966    -895.984     315.872    -580.113    4.32987e-14   -1.66644e-13   -1.66644e-13
    7500          15     99.8242     2.54803    -889.313     315.659    -573.654    6.54754e-14   -1.49103e-13   -1.49103e-13
    7600        15.2     100.184    -1.55638    -906.607     316.797    -589.811    6.15064e-14   -1.41803e-13   -1.41803e-13
    7700        15.4     100.061     13.0456    -894.772     316.409    -578.363    2.45359e-14   -1.49214e-13   -1.49214e-13
    7800        15.6     100.041     16.0304    -886.559     316.345    -570.214     4.9738e-14   -1.68421e-13   -1.68421e-13
    7900        15.8     100.012     6.37887    -890.703     316.254    -574.449    4.67404e-14   -1.86295e-13   -1.86295e-13
    8000          16      99.785    0.104479    -906.487     315.535    -590.952    4.86833e-14   -1.93623e-13   -1.93623e-13
    8100        16.2     99.7431      4.1524    -899.065     315.403    -583.662    3.74145e-14   -2.01617e-13   -2.01617e-13
    8200        16.4     99.9751    0.573285    -896.915     316.136    -580.778    3.81917e-14    -2.1072e-13    -2.1072e-13
    8300        16.6     100.005     2.40725    -902.751     316.231     -586.52    4.80727e-14   -2.15605e-13   -2.15605e-13
    8400        16.8     99.9879      10.926    -900.681     316.177    -584.504    5.41789e-14   -2.21156e-13   -2.21156e-13
    8500          17     99.8636     11.8033    -900.153     315.784     -584.37    4.59632e-14   -2.11942e-13   -2.11942e-13
    8600        17.2     100.091     11.3459    -901.851     316.504    -585.348    2.35367e-14   -2.12386e-13   -2.12386e-13
    8700        17.4     99.9187    -1.40287    -916.123     315.958    -600.165     -4.996e-15   -1.93401e-13   -1.93401e-13
    8800        17.6     99.9062   -0.306508    -901.267     315.919    -585.349    2.22045e-15   -1.84297e-13   -1.84297e-13
    8900        17.8     99.8692     1.59087    -899.743     315.801    -583.942    7.85483e-15   -1.70752e-13   -1.70752e-13
    9000          18     100.159     4.87283     -901.11     316.719    -584.392   -8.21565e-15   -1.93623e-13   -1.93623e-13
    9100        18.2      99.953      1.9013    -906.315     316.066    -590.249   -4.38538e-15   -1.93401e-13   -1.93401e-13
    9200        18.4      99.856     8.23437    -885.876      315.76    -570.116   -1.18239e-14   -2.11886e-13   -2.11886e-13
    9300        18.6     99.8738   -0.674201    -895.399     315.816    -579.583   -8.88178e-16   -2.17382e-13   -2.17382e-13
    9400        18.8       100.1     7.70914    -884.853      316.53    -568.322   -1.55431e-14   -2.11386e-13   -2.11386e-13
    9500          19     99.8859     -11.289    -912.216     315.854    -596.362   -3.55271e-15   -1.99812e-13   -1.99812e-13
    9600        19.2     100.249     8.72984    -886.172     317.001    -569.171    1.01655e-14   -2.22988e-13   -2.22988e-13
    9700        19.4     99.9848    0.625656    -886.846     316.167    -570.679    1.13243e-14   -2.01228e-13   -2.01228e-13
    9800        19.6     99.9501     2.47473    -881.885     316.057    -565.828    4.94049e-15   -2.21712e-13   -2.21712e-13
    9900        19.8     100.183     20.3026    -864.362     316.792     -547.57   -3.54161e-14   -2.28706e-13   -2.28706e-13
   10000          20     99.9652    -1.27251    -888.066     316.105    -571.962   -2.33702e-14   -2.26597e-13   -2.26597e-13
   10100        20.2     99.8902     3.52486    -896.714     315.868    -580.846   -1.77636e-14   -1.95177e-13   -1.95177e-13
   10200        20.4     100.127     6.25886     -890.49     316.617    -573.873   -1.33227e-15   -2.04465e-13   -2.04465e-13
   10300        20.6     99.9452    -3.15039    -896.335     316.042    -580.293    5.07927e-15   -2.02505e-13   -2.02505e-13
   10400        20.8      99.939    -10.1582    -907.078     316.022    -591.056    -1.7486e-15   -2.09166e-13   -2.09166e-13
   10500          21      99.899      2.7208    -895.438     315.896    -579.542    1.77636e-15   -1.84852e-13   -1.84852e-13
   10600        21.2     99.8102     4.48659    -898.442     315.615    -582.827   -3.44169e-15   -1.74638e-13   -1.74638e-13
   10700        21.4     99.9783     1.27035    -905.806     316.146     -589.66    7.54952e-15   -1.85234e-13   -1.85234e-13
   10800        21.6     100.001     10.0815     -900.19     316.219    -583.971   -9.75608e-15   -2.02061e-13   -2.02061e-13
   10900        21.8     100.035     19.1492    -878.126     316.326    -561.799   -5.27356e-16   -2.08056e-13   -2.08056e-13
   11000          22     100.168    0.301834    -902.182     316.746    -585.436   -7.68829e-15     -2.085e-13     -2.085e-13
   11100        22.2     100.008     10.1913    -894.421      316.24    -578.181    3.66374e-15   -2.07168e-13   -2.07168e-13
   11200        22.4     100.054    -2.49366    -905.451     316.385    -589.066    1.11213e-14   -2.09166e-13   -2.09166e-13
   11300        22.6     99.9757     1.30992    -897.331     316.138    -581.193   -3.13638e-15   -2.07168e-13   -2.07168e-13
   11400        22.8      99.843     9.62845    -888.033     315.719    -572.314    1.19904e-14    -2.1895e-13    -2.1895e-13
   11500          23     100.083     8.56316    -880.364     316.477    -563.888   -1.44329e-15   -2.44249e-13   -2.44249e-13
   11600        23.2     100.113     7.71988    -879.217     316.573    -562.644   -8.65974e-15   -2.36478e-13   -2.36478e-13
   11700        23.4     99.9918    -10.7357    -900.938     316.189    -584.749   -1.22125e-14   -2.40016e-13   -2.40016e-13
   11800        23.6     99.9505     17.9946     -881.86     316.058    -565.801   -9.10383e-15   -2.39031e-13   -2.39031e-13
   11900        23.8     100.011     10.7691    -885.345      316.25    -569.095    6.66134e-15   -2.35589e-13   -2.35589e-13
   12000          24     99.9042     7.57355     -888.83     315.912    -572.918    -3.9968e-15   -2.26819e-13   -2.26819e-13
   12100        24.2     99.7734     8.72087    -897.283     315.498    -581.785   -4.77396e-15   -2.13607e-13   -2.13607e-13
   12200        24.4     100.059     17.8539    -881.452     316.401    -565.051   -7.77156e-15   -2.11386e-13   -2.11386e-13
   12300        24.6     100.159     23.8795    -888.965     316.716    -572.249   -1.73195e-14   -1.94289e-13   -1.94289e-13
   12400        24.8     100.055    0.880616    -914.211     316.389    -597.822   -1.35447e-14   -2.11609e-13   -2.11609e-13
   12500          25      99.979     9.91665    -898.617     316.149    -582.468    1.33227e-15   -2.24709e-13   -2.24709e-13
   12600        25.2     100.022     9.57504    -895.271     316.284    -578.987    2.22045e-15   -2.29705e-13   -2.29705e-13
   12700        25.4     99.9897     8.23375    -891.598     316.182    -575.415   -1.23269e-14   -2.44915e-13   -2.44915e-13
   12800        25.6     100.033    -7.77179    -906.267     316.319    -589.948   -3.88578e-15   -2.22156e-13   -2.22156e-13
   12900        25.8     100.033     15.1652    -869.959     316.319    -553.641   -1.05471e-14   -2.46914e-13   -2.46914e-13
   13000          26     99.8326      1.5523    -896.585     315.686    -580.899     5.9952e-15   -2.28706e-13   -2.28706e-13
   13100        26.2     99.9712    -6.55768     -906.44     316.124    -590.316   -1.55431e-14   -2.23765e-13   -2.23765e-13
   13200        26.4     99.9744     14.6908    -879.318     316.134    -563.184   -7.21645e-15   -2.37144e-13   -2.37144e-13
   13300        26.6     99.9443     3.40425    -890.706     316.039    -574.667    1.25455e-14   -2.35527e-13   -2.35527e-13
   13400        26.8     99.7564     3.38748    -903.465     315.445     -588.02    8.88178e-15    -2.4003e-13    -2.4003e-13
   13500          27     99.9217    -5.21135    -910.303     315.967    -594.336     5.6205e-16   -2.30038e-13   -2.30038e-13
   13600        27.2     99.9009     6.15455    -895.256     315.902    -579.354   -1.05471e-14   -2.10942e-13   -2.10942e-13
   13700        27.4     100.056     2.01612    -894.079     316.392    -577.687     -1.249e-14   -2.29594e-13   -2.29594e-13
   13800        27.6     99.8032     3.94845    -889.944     315.593    -574.352   -5.88418e-15   -2.34923e-13   -2.34923e-13
   13900        27.8     100.066     8.18242    -877.809     316.423    -561.386   -8.72566e-15    -2.1938e-13    -2.1938e-13
   14000          28     99.8282    -0.90718    -896.356     315.672    -580.684   -1.35447e-14   -2.14939e-13   -2.14939e-13
   14100        28.2     100.011     19.5421    -871.678      316.25    -555.428   -2.45359e-14   -2.35367e-13   -2.35367e-13
   14200        28.4      99.884   -0.435411    -897.051     315.848    -581.202   -5.55112e-15   -2.31926e-13   -2.31926e-13
   14300        28.6     99.9264     4.33958    -900.073     315.982    -584.091   -4.71845e-15   -2.45026e-13   -2.45026e-13
   14400        28.8     100.117     1.48534    -904.281     316.584    -587.697   -4.10783e-15     -2.158e-13     -2.158e-13
   14500          29     100.109    -5.14948    -903.623      316.56    -587.063    1.62648e-14    -2.2321e-13    -2.2321e-13
   14600        29.2     99.9597      5.8869    -887.104     316.087    -571.016   -1.72085e-15   -2.54019e-13   -2.54019e-13
   14700        29.4     99.8872    -3.38088    -899.133     315.858    -583.275   -2.93099e-14   -2.59296e-13   -2.59296e-13
   14800        29.6     100.096      2.1451     -888.75     316.517    -572.233   -3.77476e-14   -2.75942e-13   -2.75942e-13
   14900        29.8     99.9985     5.95019    -880.497      316.21    -564.287   -5.58442e-14   -2.59737e-13   -2.59737e-13
   15000          30     100.145     14.9752    -886.395     316.673    -569.721   -6.05072e-14   -2.54519e-13   -2.54519e-13
   15100        30.2     99.9305     2.57522    -911.504     315.995    -595.509   -3.69704e-14    -2.5635e-13    -2.5635e-13
   15200        30.4     100.115    -3.82372    -906.154     316.578    -589.576   -2.86438e-14   -2.54019e-13   -2.54019e-13
   15300        30.6     100.042     0.99256    -898.191     316.348    -581.843    1.55431e-15   -2.80664e-13   -2.80664e-13
   15400        30.8     100.176    -2.55701    -899.829     316.771    -583.058   -5.32907e-15   -2.65565e-13   -2.65565e-13
   15500          31     100.259    -6.87343    -907.202     317.034    -590.168   -2.08722e-14   -2.85105e-13   -2.85105e-13
   15600        31.2     100.166    -8.26023    -904.222     316.739    -587.483   -2.15383e-14   -2.70228e-13   -2.70228e-13
   15700        31.4     99.9806     8.89783    -881.817     316.154    -565.664   -2.35367e-14   -2.97429e-13   -2.97429e-13
   15800        31.6     99.8347     16.1469    -869.897     315.692    -554.205   -1.58207e-14   -3.10418e-13   -3.10418e-13
   15900        31.8       100.1     7.78867    -886.078      316.53    -569.548   -3.55271e-14    -3.0867e-13    -3.0867e-13
   16000          32      99.871    -8.64294    -899.359     315.807    -583.552   -3.93019e-14   -2.96652e-13   -2.96652e-13
   16100        32.2     99.8697    -7.46212    -897.142     315.803    -581.339   -4.44089e-14   -3.08198e-13   -3.08198e-13
   16200        32.4     100.063    -4.62428    -898.742     316.414    -582.328    -4.4631e-14   -3.12528e-13   -3.12528e-13
   16300        32.6     99.8252     6.66479    -883.938     315.662    -568.276   -3.61933e-14   -3.16192e-13   -3.16192e-13
   16400        32.8       99.99    -21.4746     -924.43     316.183    -608.247   -3.90799e-14   -2.91989e-13   -2.91989e-13
   16500          33     99.9398    -2.24991    -900.089     316.025    -584.064   -7.30527e-14   -3.10418e-13   -3.10418e-13
   16600        33.2     99.8977     -2.8334    -898.136     315.891    -582.245   -6.92779e-14   -3.32845e-13   -3.32845e-13
   16700        33.4     100.224     10.4046    -889.497     316.924    -572.573   -7.74936e-14   -3.49054e-13   -3.49054e-13
   16800        33.6      99.994     10.3362    -889.728     316.196    -573.532    -9.1982e-14    -3.5083e-13    -3.5083e-13
   16900        33.8     100.146     6.14596    -893.418     316.678     -576.74   -8.54872e-14   -3.31846e-13   -3.31846e-13
   17000          34     99.9696     11.9425    -887.493     316.119    -571.374    -7.4607e-14   -3.12195e-13   -3.12195e-13
   17100        34.2     99.9481    -6.21204     -910.52     316.051    -594.469   -7.08322e-14    -2.8344e-13    -2.8344e-13
   17200        34.4     99.9905     5.26441    -892.981     316.185    -576.796   -8.88178e-14   -2.83884e-13   -2.83884e-13
   17300        34.6     100.004      18.727    -889.699     316.229     -573.47   -1.09003e-13   -2.81081e-13   -2.81081e-13
   17400        34.8      99.791     2.24355    -907.553     315.554    -591.999   -8.53762e-14   -2.82219e-13   -2.82219e-13
   17500          35     99.6068     4.50447    -897.594     314.972    -582.623   -9.08162e-14   -2.74121e-13   -2.74121e-13
   17600        35.2      100.01     1.98667    -896.219     316.248    -579.972   -1.13132e-13   -2.52812e-13   -2.52812e-13
   17700        35.4       99.79    -18.0232    -921.144     315.551    -605.593   -1.27121e-13   -2.36478e-13   -2.36478e-13
   17800        35.6     100.018    0.294675    -897.855     316.272    -581.583   -1.39444e-13   -2.53908e-13   -2.53908e-13
   17900        35.8     99.9187      10.566     -887.48     315.958    -571.522   -1.49436e-13    -2.9543e-13    -2.9543e-13
   18000          36     100.013     5.14973    -896.496     316.257    -580.239   -1.52323e-13   -2.94653e-13   -2.94653e-13
   18100        36.2      100.02     13.8389    -891.105     316.278    -574.826   -1.54959e-13   -2.93363e-13   -2.93363e-13
   18200        36.4     99.9318     3.75114    -903.695     315.999    -587.695   -1.50435e-13   -2.95153e-13   -2.95153e-13
   18300        36.6     100.036    0.816866    -902.959      316.33    -586.628   -1.53294e-13   -3.15525e-13   -3.15525e-13
   18400        36.8      99.986    -7.47543    -921.976     316.171    -605.805   -1.59428e-13   -3.09752e-13   -3.09752e-13
   18500          37     99.9934   -0.550451    -911.182     316.194    -594.988    -1.7214e-13   -3.14027e-13   -3.14027e-13
   18600        37.2     99.9635     12.5652    -886.571       316.1    -570.471   -2.02283e-13    -3.3018e-13    -3.3018e-13
   18700        37.4     100.107    -4.98931    -912.547     316.552    -595.994   -1.99209e-13   -2.96513e-13   -2.96513e-13
   18800        37.6      100.09     5.77613    -903.445     316.501    -586.944    -2.0417e-13   -3.02258e-13   -3.02258e-13
   18900        37.8     100.046     6.50059    -901.935     316.361    -585.573   -1.97869e-13   -3.03202e-13   -3.03202e-13
   19000          38     99.8953     10.1685    -898.966     315.884    -583.082   -1.83409e-13   -3.16747e-13   -3.16747e-13
   19100        38.2     100.055     6.57846    -912.383     316.388    -595.996   -1.77636e-13   -3.34288e-13   -3.34288e-13
   19200        38.4     100.223     8.96085    -905.346     316.919    -588.427   -1.74576e-13   -3.26628e-13   -3.26628e-13
   19300        38.6     99.7992     9.57595    -902.069      315.58    -586.489   -1.76303e-13   -3.03757e-13   -3.03757e-13
   19400        38.8     99.9915     11.7004      -900.6     316.188    -584.412   -1.74305e-13   -2.91489e-13   -2.91489e-13
   19500          39     100.088     1.66917    -909.343     316.492    -592.852   -1.79412e-13   -3.02813e-13   -3.02813e-13
   19600        39.2      99.864     11.4233    -887.903     315.785    -572.118   -1.86351e-13   -2.93154e-13   -2.93154e-13
   19700        39.4     99.9592    -2.90063    -912.542     316.086    -596.456   -1.50116e-13   -2.86798e-13   -2.86798e-13
   19800        39.6     99.7255    -5.85536    -906.194     315.347    -590.848   -1.50213e-13   -2.90656e-13   -2.90656e-13
   19900        39.8     99.8327     15.9675    -874.541     315.686    -558.855   -1.48215e-13   -3.24747e-13   -3.24747e-13
   20000          40     100.128     5.36971    -887.403     316.621    -570.782   -1.58984e-13   -3.15803e-13   -3.15803e-13
   20100        40.2     99.8156     4.67217    -882.239     315.632    -566.608   -1.59872e-13   -3.09086e-13   -3.09086e-13
   20200        40.4     100.197     16.9635    -867.605     316.837    -550.768   -1.90625e-13   -3.05977e-13   -3.05977e-13
   20300        40.6     100.022    -5.84498     -899.42     316.286    -583.135   -1.91402e-13   -3.07088e-13   -3.07088e-13
   20400        40.8     100.165     4.29294     -890.44     316.737    -573.703   -1.96287e-13   -3.19023e-13   -3.19023e-13
   20500          41     100.117     3.49081    -901.461     316.585    -584.876   -1.83242e-13   -3.13305e-13   -3.13305e-13
   20600        41.2     99.7886     14.2275    -885.919     315.546    -570.372   -1.95399e-13   -3.09974e-13   -3.09974e-13
   20700        41.4     99.7715     2.62358    -899.948     315.492    -584.456   -1.85962e-13   -3.08253e-13   -3.08253e-13
   20800        41.6     99.8646      6.4131    -892.319     315.787    -576.533    -1.8141e-13   -3.45945e-13   -3.45945e-13
   20900        41.8     100.016     15.4282      -875.6     316.266    -559.334    -1.9662e-13   -3.63182e-13   -3.63182e-13
   21000          42     99.9545     3.15947    -884.455     316.071    -568.384   -1.91902e-13   -3.46279e-13   -3.46279e-13
   21100        42.2     99.8765     1.54281     -885.08     315.824    -569.255   -2.01061e-13   -3.42726e-13   -3.42726e-13
   21200        42.4     100.099      4.2597    -889.215     316.529    -572.686   -1.89515e-13   -3.32623e-13   -3.32623e-13
   21300        42.6     100.035     2.11551    -896.002     316.324    -579.678   -1.72085e-13   -3.44724e-13   -3.44724e-13
   21400        42.8     100.097    0.238598    -883.611     316.522    -567.089    -1.8005e-13   -3.50941e-13   -3.50941e-13
   21500          43     99.9395     15.0272    -865.227     316.024    -549.204   -2.01283e-13   -3.76199e-13   -3.76199e-13
   21600        43.2     100.082    -2.38162    -895.537     316.473    -579.064   -1.89793e-13     -3.606e-13     -3.606e-13
   21700        43.4     100.045     3.25777    -892.496     316.356     -576.14   -2.14273e-13   -3.75699e-13   -3.75699e-13
   21800        43.6     100.291    -1.33641    -894.604     317.135    -577.469   -2.22045e-13   -3.87163e-13   -3.87163e-13
   21900        43.8     100.134    -7.25332    -900.846     316.639    -584.206   -2.11831e-13   -3.85247e-13   -3.85247e-13
   22000          44     99.9754      3.6295     -893.35     316.137    -577.213   -2.14495e-13   -3.90465e-13   -3.90465e-13
   22100        44.2     100.184     1.98817    -894.175     316.796    -577.378   -1.87628e-13   -3.85914e-13   -3.85914e-13
   22200        44.4     99.9239     11.2975    -886.765     315.975     -570.79   -1.82743e-13   -3.83915e-13   -3.83915e-13
   22300        44.6     99.8439    -10.5383    -912.427     315.722    -596.706   -1.62093e-13   -3.81917e-13   -3.81917e-13
   22400        44.8     99.8874    -1.05254    -894.965     315.859    -579.106   -1.84075e-13   -3.83915e-13   -3.83915e-13
   22500          45     100.114    -3.54223    -891.394     316.575    -574.819   -1.75082e-13   -3.98903e-13   -3.98903e-13
   22600        45.2     100.032    -12.3923     -906.63     316.316    -590.313   -1.85574e-13   -3.63376e-13   -3.63376e-13
   22700        45.4     100.146     12.9399    -887.758     316.675    -571.082   -1.81674e-13   -3.46834e-13   -3.46834e-13
   22800        45.6     100.019     3.81926     -882.97     316.274    -566.696   -1.86406e-13   -3.29514e-13   -3.29514e-13
   22900        45.8     99.8986     7.07254    -880.383     315.894    -564.488   -1.82299e-13   -3.34621e-13   -3.34621e-13
   23000          46     99.8025     12.5716    -876.845      315.59    -561.254   -1.88072e-13    -3.4206e-13    -3.4206e-13
   23100        46.2     100.096     2.26009    -885.684     316.518    -569.166    -1.8141e-13   -3.54383e-13   -3.54383e-13
   23200        46.4     99.9971    -2.42312    -890.732     316.206    -574.527   -1.65645e-13   -3.55938e-13   -3.55938e-13
   23300        46.6     99.9987    -6.62906    -900.056     316.211    -583.845   -1.64535e-13   -3.62377e-13   -3.62377e-13
   23400        46.8     99.9325      0.7514    -903.377     316.002    -587.376    -1.7919e-13   -3.33194e-13   -3.33194e-13
   23500          47     100.252    -5.14959    -897.768     317.011    -580.757   -1.66755e-13   -3.39617e-13   -3.39617e-13
   23600        47.2     100.215     9.15445    -874.517     316.894    -557.623    -1.6992e-13   -3.49054e-13   -3.49054e-13
   23700        47.4     99.9778     1.88394    -899.551     316.145    -583.406   -1.85629e-13    -3.2796e-13    -3.2796e-13