       0           0         100     8.22328           0     316.215     316.215    1.65007e-14    3.55271e-15    3.55271e-15
     100         0.2     99.8562     -9.4944    -985.863      315.76    -670.103    1.39888e-14   -2.63678e-16   -2.63678e-16
     200         0.4     99.8648     3.09841    -945.382     315.787    -629.595     3.2474e-15   -8.38218e-15   -8.38218e-15
     300         0.6     100.124    -4.59376    -955.742     316.608    -639.134     1.4766e-14   -2.37588e-14   -2.37588e-14
     400         0.8     99.9762     9.13508    -929.905      316.14    -613.766    2.43902e-14   -2.31482e-14   -2.31482e-14
     500           1      99.892     11.2384    -924.092     315.874    -608.219    2.57572e-14   -3.82194e-14   -3.82194e-14
     600         1.2     99.9653     4.11877    -934.615     316.105    -618.509    3.16969e-14   -2.40918e-14   -2.40918e-14
     700         1.4     100.038      3.9615    -931.624     316.337    -615.287     4.9738e-14   -2.39808e-14   -2.39808e-14
     800         1.6     99.9341     12.5868    -917.234     316.007    -601.227    7.72715e-14   -2.84217e-14   -2.84217e-14
     900         1.8     99.9936    0.819326    -931.683     316.195    -615.489    7.40519e-14    -2.9976e-14    -2.9976e-14
    1000           2     100.169     13.3462     -906.33     316.751    -589.579    8.13238e-14   -2.33147e-14   -2.33147e-14
    1100         2.2     100.072     6.35399    -923.014     316.443    -606.571    1.29452e-13   -4.88498e-15   -4.88498e-15
    1200         2.4     99.7112     1.27421     -929.68     315.302    -614.378    1.04833e-13   -2.59237e-14   -2.59237e-14
    1300         2.6     99.9297       15.75    -913.407     315.993    -597.414    1.15241e-13   -1.13243e-14   -1.13243e-14
    1400         2.8     100.156     9.85532    -912.283     316.708    -595.575    9.78106e-14   -1.00336e-14   -1.00336e-14
    1500           3     100.017      1.0768    -932.849     316.268    -616.581    9.17044e-14   -4.19664e-14   -4.19664e-14
    1600         3.2     99.9523     7.49167    -924.426     316.064    -608.362    1.00586e-13   -2.68674e-14   -2.68674e-14
    1700         3.4     99.8957     10.5986    -923.534     315.885    -607.649     7.9492e-14    -3.0087e-14    -3.0087e-14
    1800         3.6     100.097      7.9252    -931.452      316.52    -614.932    8.77076e-14   -3.16414e-14   -3.16414e-14
    1900         3.8     99.9293     9.55382    -929.604     315.991    -613.613    9.49518e-14   -3.37994e-14   -3.37994e-14
    2000           4     100.022     7.15887    -933.646     316.284    -617.362    9.89209e-14   -1.43219e-14   -1.43219e-14
    2100         4.2     100.133     10.1021     -926.28     316.637    -609.643    8.67639e-14   -1.03251e-14   -1.03251e-14
    2200         4.4     99.8318     16.7683    -925.231     315.683    -609.548    1.03646e-13   -2.38698e-15   -2.38698e-15
    2300         4.6     99.9603     7.72179    -926.876     316.089    -610.787    1.05943e-13    3.55271e-15    3.55271e-15
    2400         4.8      99.946     -1.1656    -931.885     316.044     -615.84    1.13243e-13    3.27516e-14    3.27516e-14
    2500           5     99.9099     9.15344    -919.296      315.93    -603.366    1.14964e-13    1.75415e-14    1.75415e-14
    2600         5.2     100.037     23.2664    -906.296     316.332    -589.964    1.40749e-13    3.04201e-14    3.04201e-14
    2700         5.4     100.053    -2.00497    -929.947     316.381    -613.566    1.32783e-13    5.14033e-14    5.14033e-14
    2800         5.6     100.113    0.943953    -933.907     316.571    -617.336    1.39055e-13    4.35207e-14    4.35207e-14
    2900         5.8     99.9016     15.7476     -911.34     315.904    -595.436    1.36502e-13    4.94049e-14    4.94049e-14
    3000           6     100.015     18.3836    -915.578     316.262    -599.316    1.54099e-13    6.92224e-14    6.92224e-14
    3100         6.2     100.023     12.9027    -929.011     316.288    -612.724    1.37668e-13    5.61148e-14    5.61148e-14
    3200         6.4     100.204    -10.9606    -945.962     316.859    -629.103    1.20209e-13    4.76286e-14    4.76286e-14
    3300         6.6     99.8577     10.2235    -910.212     315.765    -594.447    1.14353e-13     4.1106e-14     4.1106e-14
    3400         6.8     99.9573     5.41102    -920.345      316.08    -604.265    1.13021e-13    4.56857e-14    4.56857e-14
    3500           7     100.047      11.172    -912.755     316.363    -596.391     1.3034e-13    3.72063e-14    3.72063e-14
    3600         7.2     99.8616     14.7533    -907.927     315.777    -592.149    9.95592e-14    2.77556e-14    2.77556e-14
    3700         7.4     99.8742     8.95048    -911.353     315.817    -595.536    8.59868e-14    1.11022e-14    1.11022e-14
    3800         7.6     99.8024     6.82042    -922.787      315.59    -607.197    6.79595e-14    3.55271e-15    3.55271e-15
    3900         7.8     100.032     16.6413    -908.473     316.318    -592.156     5.9952e-14    9.99201e-16    9.99201e-16
    4000           8     100.084     5.36037     -925.52     316.481    -609.039    3.14193e-14    1.02141e-14    1.02141e-14
    4100         8.2     99.9544     7.68197    -924.891     316.071     -608.82    2.13163e-14    8.27116e-15    8.27116e-15
    4200         8.4     99.9774    -6.19085    -940.087     316.143    -623.944     2.7478e-14   -1.88738e-15   -1.88738e-15
    4300         8.6     100.128     8.48747    -924.211     316.621    -607.591   -7.85483e-15    -1.9984e-15    -1.9984e-15
    4400         8.8       99.97     10.5464    -922.277      316.12    -606.157   -7.21645e-15     -2.498e-14     -2.498e-14
    4500           9     99.9358    -5.93561    -928.931     316.012    -612.919    1.79717e-14   -1.90958e-14   -1.90958e-14
    4600         9.2     99.8422     17.4721    -900.895     315.716    -585.179   -5.16254e-15   -4.72955e-14   -4.72955e-14
    4700         9.4     99.8952    -4.58034    -927.184     315.884      -611.3    8.77076e-15   -4.51861e-14   -4.51861e-14
    4800         9.6     100.328      11.796    -915.037     317.253    -597.783    3.24185e-14   -6.03961e-14   -6.03961e-14
    4900         9.8     99.9746     3.34172    -939.019     316.135    -622.884     3.2141e-14   -5.86198e-14   -5.86198e-14
    5000          10     100.069     8.86309    -929.291     316.433    -612.857    4.03011e-14   -8.06577e-14   -8.06577e-14
    5100        10.2     100.039    -1.82618    -930.907     316.339    -614.569    4.93633e-14   -9.75747e-14   -9.75747e-14
    5200        10.4     100.111    -5.75281    -939.196     316.566     -622.63    3.55826e-14   -9.19265e-14   -9.19265e-14
    5300        10.6     99.8898     10.2289    -921.521     315.867    -605.654    2.10942e-14   -1.01696e-13   -1.01696e-13
    5400        10.8     99.9319      6.3134    -915.682         316    -599.682    2.33147e-14   -1.11855e-13   -1.11855e-13
    5500          11     100.148     8.50426    -934.201     316.683    -617.518   -4.44089e-15   -1.08247e-13   -1.08247e-13
    5600        11.2     100.074     11.2353    -930.272      316.45    -613.822    5.56499e-15   -1.10134e-13   -1.10134e-13
    5700        11.4     99.9295     19.5313     -905.18     315.992    -589.188   -5.10703e-15   -1.11688e-13   -1.11688e-13
    5800        11.6     100.103     14.9318    -910.834     316.542    -594.293   -1.25455e-14   -9.40914e-14   -9.40914e-14
    5900        11.8     100.035      1.8455    -934.209     316.324    -617.885    6.43929e-15   -9.54792e-14   -9.54792e-14
    6000          12      100.22     16.7535    -908.155      316.91    -591.244    1.63203e-14   -1.13465e-13   -1.13465e-13
    6100        12.2     99.9259    -4.44557    -936.389     315.981    -620.409   -1.11022e-15   -1.28231e-13   -1.28231e-13
    6200        12.4     100.042     12.3318    -925.005     316.347    -608.659    1.13243e-14   -1.38167e-13   -1.38167e-13
    6300        12.6     99.9628      2.7558    -933.849     316.097    -617.752    3.28071e-14   -1.37002e-13   -1.37002e-13
    6400        12.8     100.036    -1.56065    -939.777     316.329    -623.449    7.71605e-15   -1.48659e-13   -1.48659e-13
    6500          13     99.9838     15.5703    -918.339     316.164    -602.175    1.89848e-14   -1.46716e-13   -1.46716e-13
    6600        13.2     100.021     20.9232    -917.695     316.282    -601.412    3.27516e-14    -1.4877e-13    -1.4877e-13
    6700        13.4      100.03     4.72381    -929.142      316.31    -612.832    1.62648e-14   -1.52323e-13   -1.52323e-13
    6800        13.6     100.146      12.558    -923.379     316.678      -606.7    2.59792e-14   -1.61982e-13   -1.61982e-13
    6900        13.8     99.8054     12.0591    -918.682       315.6    -603.082    1.94289e-14   -1.63425e-13   -1.63425e-13
    7000          14     99.9555    -6.12401    -939.953     316.074    -623.879    1.95399e-14   -1.34337e-13   -1.34337e-13
    7100        14.2     99.7871     5.35346    -932.066     315.542    -616.525      4.996e-14   -1.61982e-13   -1.61982e-13
    7200        14.4     100.112      13.706    -924.838     316.571    -608.267     6.4615e-14   -1.52767e-13   -1.52767e-13
    7300        14.6     100.108     10.7855     -926.74     316.555    -610.185    5.69544e-14   -1.48881e-13   -1.48881e-13
    7400        14.8     100.096     2.97249    -936.096     316.518    -619.578    5.20695e-14   -1.48104e-13   -1.48104e-13
    7500          15     99.9044     3.19735     -936.59     315.913    -620.678     2.7256e-14   -1.49325e-13   -1.49325e-13
    7600        15.2     99.9718     18.1866    -922.835     316.126    -606.709    4.73718e-14   -1.44107e-13   -1.44107e-13
    7700        15.4     100.087     7.03565     -931.38      316.49     -614.89    4.20775e-14   -1.31735e-13   -1.31735e-13
    7800        15.6     100.053     1.05289    -932.404     316.384     -616.02     5.4512e-14   -1.46327e-13   -1.46327e-13
    7900        15.8     99.9169    -0.86037     -934.03     315.952    -618.078    7.71605e-14   -1.34004e-13   -1.34004e-13
    8000          16      100.15    0.553455    -937.405     316.689    -620.715    8.35443e-14   -1.33005e-13   -1.33005e-13
    8100        16.2     99.8788     6.20838    -939.369     315.832    -623.537    9.54792e-14   -1.49214e-13   -1.49214e-13
    8200        16.4     99.8736     2.38073    -940.636     315.815    -624.821    9.23706e-14   -1.69198e-13   -1.69198e-13
    8300        16.6     99.8804       4.549    -938.888     315.837    -623.051     5.9952e-14   -1.40887e-13   -1.40887e-13
    8400        16.8     99.9479     12.3791    -923.579      316.05    -607.528    8.13793e-14   -1.54543e-13   -1.54543e-13
    8500          17      100.04     5.84917    -932.392     316.342     -616.05    7.12486e-14   -1.48992e-13   -1.48992e-13
    8600        17.2     99.8496     6.08859    -926.329     315.739     -610.59    6.63636e-14   -1.31173e-13   -1.31173e-13
    8700        17.4     99.9407     6.90384    -929.445     316.028    -613.418    8.28226e-14   -1.39222e-13   -1.39222e-13
    8800        17.6     100.056     8.90065    -914.411     316.394    -598.018    9.80327e-14   -1.42664e-13   -1.42664e-13
    8900        17.8     99.8104     5.92125    -910.755     315.615     -595.14    1.08247e-13   -1.13465e-13   -1.13465e-13
    9000          18     100.025      10.406    -912.744     316.294     -596.45    1.17129e-13   -9.64784e-14   -9.64784e-14
    9100        18.2     99.8408     10.3193    -922.009     315.712    -606.298    1.07359e-13   -9.88098e-14   -9.88098e-14
    9200        18.4     100.022     21.0207    -918.464     316.284     -602.18    9.28146e-14   -8.14748e-14   -8.14748e-14
    9300        18.6     99.7246     50.4785    -878.665     315.344    -563.321    9.21069e-14   -1.09579e-13   -1.09579e-13
    9400        18.8     100.101    -16.7047    -960.387     316.535    -643.852    6.89448e-14   -8.26006e-14   -8.26006e-14
    9500          19     99.9262     4.02828    -933.699     315.982    -617.718     7.4607e-14   -7.60503e-14   -7.60503e-14
    9600        19.2     99.9788     2.58641    -938.894     316.148    -622.746    5.28466e-14   -7.33857e-14   -7.33857e-14
    9700        19.4     99.9897     16.5487    -918.566     316.182    -602.383    6.92779e-14    -7.4607e-14    -7.4607e-14
    9800        19.6     99.8141     7.61855    -927.721     315.627    -612.094     4.9738e-14   -7.47562e-14   -7.47562e-14
    9900        19.8     100.031     8.24908    -921.428     316.312    -605.116    5.42899e-14   -6.31717e-14   -6.31717e-14
   10000          20     99.9204     4.29637    -931.223     315.963     -615.26    6.32827e-14   -9.02056e-14   -9.02056e-14
   10100        20.2     100.089    -3.43967    -941.555     316.495     -625.06    4.81837e-14    -5.9508e-14    -5.9508e-14
   10200        20.4     99.9322     2.90054    -924.047     316.001    -608.046    5.39013e-14   -4.95159e-14   -4.95159e-14
   10300        20.6      99.899     12.4227    -912.877     315.896    -596.982    5.61773e-14    -6.2339e-14    -6.2339e-14
   10400        20.8     99.8707     7.73553    -913.235     315.806    -597.429    6.64468e-14   -5.04596e-14   -5.04596e-14
   10500          21      99.889     3.43713    -919.724     315.864     -603.86    3.75255e-14   -7.48845e-14   -7.48845e-14
   10600        21.2     100.152     14.0578    -907.091     316.696    -590.395    4.35207e-14   -6.20615e-14   -6.20615e-14
   10700        21.4     99.9761     4.24059    -923.427     316.139    -607.288    2.87548e-14    -5.7232e-14    -5.7232e-14
   10800        21.6      99.945     2.44269    -938.858     316.041    -622.817     1.4988e-14   -5.19862e-14   -5.19862e-14
   10900        21.8     99.8409     12.1368    -923.302     315.712     -607.59   -3.71925e-15   -5.27356e-14   -5.27356e-14
   11000          22      100.07    -9.11543    -945.348     316.437    -628.911    2.05391e-15   -3.70814e-14   -3.70814e-14
   11100        22.2     99.9433    -1.51362    -932.181     316.036    -616.145     2.6229e-15   -3.59157e-14   -3.59157e-14
   11200        22.4     100.009    -3.32706    -936.153     316.245    -619.908    5.10703e-15   -2.58682e-14   -2.58682e-14
   11300        22.6      99.913    -3.11969    -933.585      315.94    -617.645    1.07692e-14   -2.38143e-14   -2.38143e-14
   11400        22.8     100.163     3.88469    -932.451      316.73    -615.721    2.14828e-14   -2.68674e-14   -2.68674e-14
   11500          23     99.9996   -0.731341    -946.053     316.214    -629.839    3.29181e-14   -2.55351e-15   -2.55351e-15
   11600        23.2     99.7585     12.5119    -933.525     315.451    -618.074    2.93099e-14    1.72085e-14    1.72085e-14
   11700        23.4     100.008     10.4527    -935.413     316.239    -619.174    3.34177e-14    2.95874e-14    2.95874e-14
   11800        23.6      100.08     12.1681    -940.352     316.467    -623.885    3.07532e-14    3.66374e-15    3.66374e-15
   11900        23.8     99.8684     22.0219    -928.071     315.799    -612.273    5.19584e-14    1.53766e-14    1.53766e-14
   12000          24     99.9277     22.1933    -929.309     315.986    -613.323     4.9738e-14    9.32587e-15    9.32587e-15
   12100        24.2     99.8537     16.7773    -922.832     315.752    -607.079    6.30052e-14    1.45439e-14    1.45439e-14
   12200        24.4     99.8934      12.036    -914.153     315.878    -598.275    3.81917e-14    1.86517e-14    1.86517e-14
   12300        24.6     100.073    -6.38348    -941.232     316.444    -624.788    1.93179e-14    3.86358e-14    3.86358e-14
   12400        24.8     100.005   -0.918938    -930.991     316.232    -614.759    3.17524e-14    3.51941e-14    3.51941e-14
   12500          25     99.8669      12.103    -923.804     315.794     -608.01    4.71324e-14    4.89608e-14    4.89608e-14
   12600        25.2     99.9759     6.80168    -922.132     316.139    -605.994    5.83977e-14    4.50751e-14    4.50751e-14
   12700        25.4     100.061    -7.31499    -936.558     316.408    -620.151    5.69544e-14     4.4964e-14     4.4964e-14
   12800        25.6     100.074     6.84371    -916.969     316.449     -600.52    6.60583e-14    4.43742e-14    4.43742e-14
   12900        25.8      100.13     10.1317    -921.183     316.625    -604.558     6.4504e-14    2.93932e-14    2.93932e-14
   13000          26     99.9565     9.09092    -917.602     316.077    -601.525    6.89448e-14    6.15619e-14    6.15619e-14
   13100        26.2     100.007     4.61194     -920.47     316.237    -604.234    7.78266e-14    6.63913e-14    6.63913e-14
   13200        26.4     99.8758     5.84353      -925.4     315.822    -609.577    4.59632e-14    6.86118e-14    6.86118e-14
   13300        26.6      99.992      3.0375    -926.138      316.19    -609.948    3.14193e-14    6.65579e-14    6.65579e-14
   13400        26.8     99.9138     8.32187    -915.544     315.942    -599.602    1.95399e-14    6.59472e-14    6.59472e-14
   13500          27      99.856     14.9337    -915.171      315.76    -599.411    3.37508e-14    6.01741e-14    6.01741e-14
   13600        27.2     99.7363     18.4171    -913.308     315.381    -597.927    6.60028e-14    6.03961e-14    6.03961e-14
   13700        27.4     99.9887     5.90393     -940.98     316.179    -624.801     5.9508e-14    4.77396e-14    4.77396e-14
   13800        27.6     100.029     0.81496    -940.449     316.308    -624.141    5.12923e-14    4.79616e-14    4.79616e-14
   13900        27.8     100.003    -7.14109    -943.345     316.225     -627.12    6.61693e-14     4.9849e-14     4.9849e-14
   14000          28     99.8171     4.86515    -925.577     315.637     -609.94    8.70415e-14    5.10703e-14    5.10703e-14
   14100        28.2     99.9878     13.5051    -922.407     316.176    -606.231    9.32587e-14    4.19664e-14    4.19664e-14
   14200        28.4     99.9182     15.2936    -923.722     315.956    -607.766    8.39329e-14    3.10862e-14    3.10862e-14
   14300        28.6     99.9071     29.0558    -900.366     315.921    -584.445    1.11466e-13     1.9984e-14     1.9984e-14
   14400        28.8      99.954     5.50536    -943.453     316.069    -627.383    1.11577e-13    2.63123e-14    2.63123e-14
   14500          29     99.9918      4.8234    -942.765     316.189    -626.576    9.43134e-14    2.51466e-14    2.51466e-14
   14600        29.2     100.072     15.0701    -925.362     316.442     -608.92    1.34337e-13     2.4647e-14     2.4647e-14
   14700        29.4     100.126     18.8369    -906.316     316.615    -589.701    1.26565e-13    2.38698e-14    2.38698e-14
   14800        29.6      99.963     4.98717    -925.177     316.098    -609.078    1.08691e-13    1.35447e-14    1.35447e-14
   14900        29.8     100.007     4.57759    -926.277     316.236    -610.041     8.7208e-14     6.1548e-15     6.1548e-15
   15000          30     99.8065     12.1463    -916.001     315.603    -600.398    8.41549e-14   -1.22125e-14   -1.22125e-14
   15100        30.2     100.042     9.18922    -923.872     316.348    -607.524    8.27116e-14    5.55112e-15    5.55112e-15
   15200        30.4     99.9649     9.14294    -909.172     316.104    -593.068    8.06022e-14   -1.66533e-14   -1.66533e-14
   15300        30.6     100.239     1.15597     -928.77      316.97      -611.8    7.79654e-14   -2.53131e-14   -2.53131e-14
   15400        30.8     100.001     11.0197     -915.55     316.218    -599.331    9.40359e-14   -3.53051e-14   -3.53051e-14
   15500          31     99.9377     12.9526     -918.59     316.018    -602.572     8.9484e-14    -2.5091e-14    -2.5091e-14
   15600        31.2     100.017   -0.819169    -932.416     316.267    -616.149    1.11022e-13   -2.68674e-14   -2.68674e-14
   15700        31.4     99.9312     4.84247    -913.335     315.997    -597.338    8.72635e-14   -3.51386e-14   -3.51386e-14
   15800        31.6     100.149     17.0637    -903.118     316.687    -586.431       6.95e-14   -2.44527e-14   -2.44527e-14
   15900        31.8     99.8646     18.9376    -908.457     315.787     -592.67    7.83817e-14   -4.03566e-14   -4.03566e-14
   16000          32      100.14     11.2858    -924.951     316.658    -608.293    1.02748e-13   -4.61853e-14   -4.61853e-14
   16100        32.2      99.771     16.8034    -916.772     315.491    -601.281    9.65894e-14   -2.94209e-14   -2.94209e-14
   16200        32.4     100.083     28.8054     -894.15     316.477    -577.673    1.00586e-13   -2.64233e-14   -2.64233e-14
   16300        32.6     100.196   -0.946221    -940.977     316.833    -624.144    1.04639e-13   -3.37508e-14   -3.37508e-14
   16400        32.8     100.048     19.7591    -913.562     316.368    -597.194    1.11244e-13   -2.59792e-14   -2.59792e-14
   16500          33     100.005     16.6658    -922.084      316.23    -605.854    1.14853e-13   -2.53131e-14   -2.53131e-14
   16600        33.2     100.056    -3.81779    -943.861     316.393    -627.469    1.20126e-13   -1.03251e-14   -1.03251e-14
   16700        33.4     99.9906     1.29257    -934.517     316.185    -618.332    1.20459e-13   -2.77556e-14   -2.77556e-14
   16800        33.6     100.187    -2.18257    -940.406     316.805    -623.601    1.36335e-13   -3.87468e-14   -3.87468e-14
   16900        33.8     100.013     4.73782    -932.141     316.255    -615.886    1.65423e-13   -1.17684e-14   -1.17684e-14
   17000          34     99.7742     22.0995    -919.346     315.501    -603.844    1.52323e-13   -9.32587e-15   -9.32587e-15
   17100        34.2     100.107     4.73532    -936.353     316.553    -619.799    1.48881e-13   -9.71445e-15   -9.71445e-15
   17200        34.4     99.9445     14.8029    -925.118      316.04    -609.078     1.5965e-13   -6.66134e-15   -6.66134e-15
   17300        34.6     99.8361    -3.07966    -942.386     315.697    -626.689     1.4122e-13    2.44249e-15    2.44249e-15
   17400        34.8     99.9917     3.10085    -930.416     316.189    -614.227    1.37668e-13    1.53211e-14    1.53211e-14
   17500          35     99.9468     21.2945    -916.698     316.047    -600.651    1.27731e-13    2.81997e-14    2.81997e-14
   17600        35.2     99.8988     13.0029    -925.558     315.895    -609.663    1.32561e-13    3.54161e-14    3.54161e-14
   17700        35.4     99.9996     9.02482    -932.854     316.214     -616.64    1.42012e-13    5.85088e-14    5.85088e-14
   17800        35.6     99.8744     14.8626    -926.766     315.818    -610.948    1.35003e-13    6.13953e-14    6.13953e-14
   17900        35.8     99.9352     13.1105    -922.116      316.01    -606.106    1.30229e-13    7.06102e-14    7.06102e-14
   18000          36     100.023    -10.3822    -949.559     316.288    -633.271    1.29896e-13    5.94524e-14    5.94524e-14
   18100        36.2     100.231     10.4523    -929.102     316.945    -612.157     1.2057e-13    6.83897e-14    6.83897e-14
   18200        36.4     100.057     17.5551    -925.763     316.394    -609.369    9.89764e-14    7.34968e-14    7.34968e-14
   18300        36.6     99.9595     12.9909    -919.513     316.087    -603.426    1.30784e-13    8.39329e-14    8.39329e-14
   18400        36.8      99.828     19.0068    -908.664     315.671    -592.993    1.47188e-13    6.28386e-14    6.28386e-14
   18500          37     99.9916    -9.10635    -938.561     316.189    -622.372    1.53655e-13    6.06182e-14    6.06182e-14
   18600        37.2     99.9094    -8.07715    -942.249     315.928    -626.321    1.37002e-13    5.51781e-14    5.51781e-14
   18700        37.4     99.8418     18.4128    -913.136     315.715    -597.422    1.44329e-13    4.04538e-14    4.04538e-14
   18800        37.6     100.119     20.8412    -915.415     316.591    -598.824    1.55653e-13    5.69406e-14    5.69406e-14
   18900        37.8     100.083     17.6038     -916.17     316.477    -599.692    1.56875e-13    5.91749e-14    5.91749e-14
   19000          38     99.7693     3.50309    -924.597     315.486    -609.112    1.26288e-13    5.65104e-14    5.65104e-14
   19100        38.2     100.079     1.37816    -935.475     316.463    -619.012    1.47771e-13    4.63518e-14    4.63518e-14
   19200        38.4     100.032     4.08337    -932.628     316.318     -616.31    1.56486e-13    5.04319e-14    5.04319e-14
   19300        38.6     100.049     7.37789    -941.111     316.369    -624.743    1.57652e-13    6.17284e-14    6.17284e-14
   19400        38.8     100.028     1.33674    -932.787     316.303    -616.484    1.39111e-13    6.45317e-14    6.45317e-14
   19500          39     100.229   -0.205082    -932.577      316.94    -615.637    1.40998e-13    5.32074e-14    5.32074e-14
   19600        39.2     99.7672     2.99982    -924.196     315.479    -608.717    1.42109e-13    4.04121e-14    4.04121e-14
   19700        39.4     100.175     8.56416    -910.526      316.77    -593.756     1.5965e-13    4.61853e-14    4.61853e-14
   19800        39.6     99.6577      11.153    -904.838     315.133    -589.706    1.80356e-13    5.90639e-14    5.90639e-14
   19900        39.8      99.928    -1.25067    -926.007     315.987    -610.019    1.88294e-13    6.69464e-14    6.69464e-14
   20000          40     99.8941    -8.89754    -934.464      315.88    -618.584    1.73306e-13    7.79377e-14    7.79377e-14
   20100        40.2      100.05    -5.08619    -934.807     316.373    -618.434    1.75415e-13    8.23785e-14    8.23785e-14
   20200        40.4     100.063     16.3904    -908.767     316.415    -592.353    2.03171e-13    8.35998e-14    8.35998e-14
   20300        40.6     100.046     14.1077    -916.407     316.361    -600.046     2.0095e-13     6.4615e-14     6.4615e-14
   20400        40.8      99.906     2.28758    -925.706     315.918    -609.788    1.85036e-13    8.39953e-14    8.39953e-14
   20500          41     100.018    -4.17877    -940.726     316.271    -624.455    1.84741e-13    7.32747e-14    7.32747e-14
   20600        41.2     100.076     25.2598    -905.122     316.455    -588.667    1.89959e-13    1.15907e-13    1.15907e-13
   20700        41.4     100.121     1.09797     -925.41     316.597    -608.813    1.69753e-13      1.249e-13      1.249e-13
   20800        41.6     99.9628     1.82375    -927.119     316.097    -611.021    1.71418e-13    1.13909e-13    1.13909e-13
   20900        41.8     99.9575     15.4189    -922.567     316.081    -606.486    1.66034e-13    1.23845e-13    1.23845e-13
   21000          42     99.9424      18.479    -919.258     316.033    -603.225    1.71363e-13    1.27676e-13    1.27676e-13
   21100        42.2     99.8433     26.3244    -913.507      315.72    -597.787    1.64979e-13    1.12493e-13    1.12493e-13
   21200        42.4      100.03     11.4103    -926.488     316.309    -610.178    1.60649e-13    9.51461e-14    9.51461e-14
   21300        42.6     99.9972    -8.78577    -941.742     316.206    -625.536    1.77525e-13    1.09468e-13    1.09468e-13
   21400        42.8      100.28    -3.19975    -943.755     317.101    -626.654    1.68032e-13    1.08469e-13    1.08469e-13
   21500          43     100.026     13.0676    -919.633     316.297    -603.336    1.65756e-13    1.00475e-13    1.00475e-13
   21600        43.2     99.9138     8.07114    -927.742     315.942      -611.8    1.76748e-13    1.04139e-13    1.04139e-13
   21700        43.4     99.8272    -2.31131    -931.857     315.669    -616.188    1.64091e-13    1.22513e-13    1.22513e-13
   21800        43.6     99.9234     8.16645    -917.182     315.973    -601.209    1.69864e-13    1.22569e-13    1.22569e-13
   21900        43.8     100.082     8.84966    -926.132     316.473    -609.659    1.64979e-13    1.29674e-13    1.29674e-13
   22000          44     99.8221     16.4579     -922.42     315.653    -606.768    1.57652e-13    1.33671e-13    1.33671e-13
   22100        44.2     100.051     13.1822    -924.093     316.378    -607.716    1.42497e-13    1.46327e-13    1.46327e-13
   22200        44.4     99.9406     -7.7113    -955.007     316.027     -638.98    1.43441e-13    1.28342e-13    1.28342e-13
   22300        44.6     100.186    -4.72957    -947.899     316.804    -631.095    1.51212e-13    1.04972e-13    1.04972e-13
   22400        44.8     100.115     2.10804    -935.939     316.578    -619.361     1.4988e-13    1.02751e-13    1.02751e-13
   22500          45     100.119    -12.3524    -955.084     316.591    -638.493    1.51879e-13    7.12763e-14    7.12763e-14
   22600        45.2     100.042      18.171      -920.4     316.348    -604.052    1.38833e-13     1.0536e-13     1.0536e-13
   22700        45.4     100.001     13.7545     -922.21     316.218    -605.992    1.39444e-13    9.20375e-14    9.20375e-14
   22800        45.6     99.8559    -2.00365    -936.166     315.759    -620.407    1.29674e-13    8.52651e-14    8.52651e-14
   22900        45.8     100.082     6.29499    -926.087     316.474    -609.612    1.52101e-13    6.53227e-14    6.53227e-14
   23000          46     99.9774     11.2349    -919.463     316.143    -603.319    1.48881e-13    4.26326e-14    4.26326e-14
   23100        46.2     99.9946     13.8799    -919.074     316.198    -602.877     1.2812e-13    5.36238e-14    5.36238e-14
   23200        46.4     99.8614     13.8881    -914.482     315.777    -598.705    1.19738e-13    5.52891e-14    5.52891e-14
   23300        46.6     99.9088    -5.27315      -934.6     315.927    -618.673    1.12854e-13    5.32352e-14    5.32352e-14
   23400        46.8     99.9176    -7.12011    -933.876     315.954    -617.922    1.33116e-13    6.61693e-14    6.61693e-14
   23500          47      100.27     13.5666    -919.836     317.068    -602.768    1.36446e-13    7.80487e-14    7.80487e-14
   23600        47.2     99.8781     -3.5964    -938.978     315.829    -623.148    1.18905e-13    8.10463e-14    8.10463e-14
   23700        47.4     99.9859     6.87937    -925.163     316.171    -608.992    1.19904e-13    7.27751e-14    7.27751e-14