       0    -13.5004    -1196.47
     100    -12.3559    -1194.98
     200    -11.8623    -1194.01
     300    -13.0326    -1195.91
     400    -13.2754    -1196.28
     500    -12.2075    -1194.78
     600    -10.8952    -1192.92
     700    -9.62664    -1191.35
     800    -8.45721    -1189.55
     900    -8.24877    -1189.26
    1000    -7.90757    -1188.91
    1100    -7.57974     -1188.3
    1200    -6.64015    -1186.79
    1300    -5.68507    -1185.78
    1400    -4.58288    -1184.33
    1500    -4.69439    -1184.46
    1600    -4.44347    -1183.98
    1700    -2.43331    -1181.41
    1800    -2.25417    -1181.11
    1900     -2.3739    -1181.45
    2000    -1.48674    -1180.31
    2100    -1.84552    -1180.62
    2200    -1.01934    -1179.52
    2300   -0.475876     -1178.6
    2400   0.0829106    -1177.77
    2500    0.212449    -1177.81
    2600  -0.0221835    -1177.99
    2700    -1.10064    -1179.59
    2800    -1.55988    -1180.79
    2900    -1.92682    -1181.25
    3000    -1.89609    -1181.09
    3100    -1.09755     -1179.9
    3200   -0.987736    -1179.84
    3300    -1.78403    -1181.28
    3400    -1.09201    -1180.51
    3500    0.661402       -1178
    3600     1.02406    -1177.38
    3700    0.282119    -1177.95
    3800    0.477742    -1178.07
    3900    0.876643    -1177.67
    4000      1.3656     -1177.1
    4100     1.26902    -1177.06
    4200     2.58934    -1175.32
    4300     2.15741    -1176.15
    4400     2.63229    -1175.56
    4500      3.2232    -1174.93
    4600     3.97179    -1174.01
    4700     4.59094    -1173.17
    4800     4.57937    -1173.23
    4900     5.94717    -1171.76
    5000     5.52632    -1171.94
    5100      4.7754    -1172.75
    5200     5.08361    -1172.41
    5300     6.38296     -1170.6
    5400     6.79834    -1169.87
    5500     6.21882    -1170.81
    5600     5.87326    -1171.12
    5700     6.28015     -1170.4
    5800     5.93532    -1170.77
    5900     6.82488    -1169.59
    6000     7.30945    -1168.84
    6100      8.2201    -1167.93
    6200     8.59737    -1167.21
    6300     7.69856    -1168.56
    6400     7.56023    -1168.94
    6500     6.62751    -1170.39
    6600     7.81912    -1168.98
    6700     7.27146    -1170.09
    6800     9.31178    -1167.11
    6900     8.51084    -1168.14
    7000     9.20922    -1166.91
    7100     10.5123    -1165.15
    7200     11.7868    -1163.62
    7300     10.9143    -1165.07
    7400     10.6067    -1165.43
    7500     11.3736    -1164.22
    7600     9.80091     -1166.5
    7700     10.5306    -1165.69
    7800     11.6273    -1164.43
    7900     11.4365    -1164.81
    8000     10.7697    -1165.41
    8100     11.4972    -1164.34
    8200      11.305    -1164.55
    8300     11.4473    -1164.25
    8400     11.8973    -1163.54
    8500     11.8781     -1163.7
    8600      12.416    -1163.03
    8700     12.2077    -1162.99
    8800     11.8259    -1163.51
    8900     11.5796    -1164.17
    9000     12.6021    -1162.74
    9100     11.6016    -1164.49
    9200     11.4355    -1164.47
    9300      12.114    -1163.66
    9400     12.8255    -1162.58
    9500     12.0952    -1163.41
    9600     11.7669    -1164.13
    9700     12.1579    -1163.78
    9800     12.1227    -1163.79
    9900     11.3209    -1164.89
   10000     10.3996    -1166.28
   10100      11.643     -1164.4
   10200     11.3666    -1164.77
   10300     11.2286    -1165.04
   10400     12.6405    -1163.23
   10500     13.4649    -1162.49
   10600     12.9237    -1163.13
   10700     10.3815    -1166.72
   10800     10.1673     -1167.1
   10900     10.3011    -1166.79
   11000     10.7919    -1165.98
   11100     11.1744    -1165.54
   11200     12.6662    -1163.26
   11300     13.3266    -1162.07
   11400     12.7145    -1163.05
   11500     13.1963    -1162.29
   11600     12.6605    -1162.87
   11700     12.0126     -1163.9
   11800     12.3229    -1164.02
   11900     11.4495    -1165.28
   12000     12.2567    -1164.05
   12100     10.9519    -1166.04
   12200      11.557    -1165.41
   12300     11.4352    -1165.61
   12400     13.5365    -1162.88
   12500      13.173     -1163.5
   12600     13.4899    -1163.02
   12700     14.3732    -1161.97
   12800     13.8382    -1162.82
   12900     14.2907    -1162.16
   13000      14.257    -1162.25
   13100     13.7294    -1163.28
   13200     13.7615    -1163.23
   13300     13.1206    -1164.24
   13400     12.2082     -1165.3
   13500     12.0966    -1165.76
   13600     10.1397    -1168.51
   13700       9.828    -1168.49
   13800     10.8945    -1167.06
   13900     11.0308    -1166.88
   14000     11.4466    -1166.26
   14100     12.5497    -1164.57
   14200     13.1817    -1163.86
   14300     12.7862    -1164.12
   14400      12.727    -1164.41
   14500     13.5627    -1163.62
   14600      13.388    -1164.01
   14700     13.6047    -1163.74
   14800     14.1803    -1163.13
   14900     14.9425    -1162.12
   15000     15.2006    -1161.88
   15100     15.1713    -1162.16
   15200     15.5611    -1161.53
   15300     13.7452    -1164.08
   15400     13.2187    -1164.89
   15500     14.2325    -1163.39
   15600     14.5949    -1163.15
   15700     13.6749    -1164.38
   15800     13.6773    -1164.82
   15900     14.4728    -1163.63
   16000     15.1466    -1162.78
   16100     14.6004     -1163.3
   16200     15.4502    -1162.18
   16300     15.5608    -1161.85
   16400     15.9717    -1161.63
   16500     15.6152    -1161.86
   16600      15.703     -1161.7
   16700     16.6704    -1160.18
   16800     16.3991    -1160.58
   16900     16.3396    -1160.67
   17000     15.9245    -1160.92
   17100     15.4131    -1161.59
   17200     14.0421    -1163.16
   17300     13.1192    -1164.15
   17400     14.1171    -1162.86
   17500     14.5266    -1162.06
   17600     13.9472    -1162.71
   17700     13.3663    -1163.48
   17800     13.2234    -1163.64
   17900     14.3409    -1161.93
   18000     15.3979    -1160.42
   18100     14.7169    -1161.38
   18200      16.004    -1159.49
   18300     15.6921    -1160.05
   18400     15.0298    -1161.08
   18500     13.4217    -1163.07
   18600     14.1358    -1162.28
   18700     15.5307    -1160.28
   18800     15.0262    -1160.82
   18900     14.1353    -1162.42
   19000     15.0678    -1161.08
   19100     16.6611    -1158.81
   19200     15.4708    -1160.04
   19300     16.4656    -1158.72
   19400     15.7137    -1159.66
   19500      15.778    -1159.41
   19600      15.115    -1160.47
   19700     14.6872    -1161.33
   19800     14.8471    -1160.94
   19900     15.1085    -1160.61
   20000     15.4349     -1160.3
   20100     16.2569    -1159.37
   20200     16.4514    -1159.01
   20300     15.7626    -1160.01
   20400     16.4863    -1159.12
   20500     15.8524    -1160.04
   20600     16.4965    -1159.51
   20700     16.7151    -1159.27
   20800     16.8127    -1158.84
   20900      17.763    -1157.69
   21000     17.0691    -1158.78
   21100     18.0483    -1157.64
   21200     18.8083    -1156.58
   21300     17.6266    -1158.74
   21400     17.8304     -1158.7
   21500     17.6858    -1158.97
   21600     17.3192    -1159.39
   21700     18.2247    -1158.03
   21800     18.0902    -1158.34
   21900     16.3718    -1161.02
   22000     15.9945     -1161.5
   22100     15.4481    -1162.44
   22200     15.2154     -1162.7
   22300     14.9355    -1163.22
   22400     15.3541    -1162.69
   22500     15.3165    -1162.72
   22600     14.8519    -1163.09
   22700     14.0155    -1164.22
   22800     14.1243     -1164.3
   22900     14.5203    -1163.45
   23000     15.3814    -1162.14
   23100      15.612    -1161.64
   23200     16.4381    -1160.39
   23300     15.9943    -1160.97
   23400     15.1569    -1161.95
   23500      15.188    -1162.32
   23600     14.1552    -1164.07
   23700     14.5085     -1163.8
   23800     15.6155     -1162.5
   23900     15.3762    -1162.62
   24000     15.6402    -1162.13
   24100     15.3066    -1162.42
   24200     15.7244     -1161.7
   24300     15.5761       -1162
   24400     15.3464    -1162.13
   24500     15.6071       -1162
   24600     16.3312    -1160.79
   24700     16.9028    -1160.31
   24800     19.0949     -1157.6
   24900     19.1533    -1157.78
   25000     18.2891     -1159.3
   25100     20.5949    -1156.44
   25200     21.6955    -1155.05
   25300     22.5227     -1153.9
   25400     22.0324    -1154.54
   25500     21.4567    -1155.31
   25600     21.5782    -1155.12
   25700     22.0236    -1154.74
   25800     21.2612    -1155.97
   25900     21.3412    -1156.02
   26000     21.3704    -1156.03
   26100     19.5492    -1158.29
   26200     18.8508    -1159.03
   26300     19.5241    -1158.11
   26400     19.6963    -1157.77
   26500     21.3165    -1155.79
   26600     20.6381    -1156.71
   26700     19.8938    -1157.75
   26800     19.8917    -1157.55
   26900      20.559    -1156.64
   27000     21.9686    -1154.85
   27100     22.8795     -1153.4
   27200     23.4471    -1152.75
   27300     25.2704     -1150.5
   27400       26.36    -1149.03
   27500     26.6836    -1148.83
   27600     27.2703    -1148.34
   27700     27.5362    -1147.82
   27800     27.3864    -1147.97
   27900      27.986    -1147.94
   28000      27.237    -1148.73
   28100     26.6225    -1149.36
   28200     26.2272    -1150.18
   28300     25.5864    -1150.96
   28400     24.9586     -1151.7
   28500     26.4392    -1149.61
   28600     26.6384    -1149.77
   28700     27.5763    -1148.41
   28800     26.1103    -1150.52
   28900     26.1644    -1150.25
   29000     25.5038    -1151.17
   29100     25.6093    -1150.83
   29200     24.9569    -1151.72
   29300     24.8971    -1151.91
   29400     23.8687     -1153.7
   29500     25.8926    -1150.85
   29600     25.8838    -1150.79
   29700     25.4743    -1151.45
   29800      24.668    -1152.21
   29900     24.8826    -1152.09
   30000     24.6079    -1152.28
   30100     24.0858    -1152.66
   30200     22.5926    -1154.58
   30300     22.3505    -1154.71
   30400     22.7893     -1154.1
   30500     23.2054    -1153.65
   30600     23.4698    -1153.61
   30700      22.448    -1154.83
   30800     21.5218    -1156.17
   30900     20.2015    -1157.88
   31000     19.1036    -1159.33
   31100     19.2805    -1159.31
   31200     18.9094    -1159.82
   31300     19.4907    -1158.64
   31400     20.9594    -1156.64
   31500     19.0898    -1159.13
   31600     17.6582     -1160.8
   31700     19.4771    -1158.17
   31800     20.2914    -1157.08
   31900     19.8869    -1157.57
   32000     20.8577    -1156.55
   32100     21.0221    -1156.46
   32200     21.2265    -1156.28
   32300     20.8719    -1156.67
   32400       20.44    -1157.39
   32500     18.6455    -1159.54
   32600     19.1884    -1158.86
   32700     18.6164    -1159.68
   32800     17.5525    -1161.29
   32900      16.959    -1162.21
   33000     16.9456    -1162.08
   33100     17.3401    -1161.86
   33200     17.3093    -1161.67
   33300     15.7398    -1163.87
   33400      16.687    -1162.14
   33500     18.1932    -1160.13
   33600     17.4872    -1161.11
   33700     17.3676    -1161.01
   33800     15.6805    -1163.37
   33900     15.2325       -1164
   34000     14.8365    -1164.32
   34100     16.2077    -1162.39
   34200     16.3582    -1162.03
   34300       16.35    -1161.83
   34400     17.7383    -1160.28
   34500     19.6439    -1157.76
   34600     19.4482    -1158.01
   34700     19.6929    -1157.84
   34800     19.6515    -1157.79
   34900     19.8343    -1157.27
   35000     19.1529    -1158.37
   35100     20.2858    -1157.13
   35200     20.9234    -1156.44
   35300     21.9766    -1155.02
   35400     23.2504    -1153.17
   35500     23.7453    -1152.42
   35600      22.778    -1154.27
   35700     23.6093    -1153.58
   35800     24.6762    -1152.19
   35900     25.3276    -1151.19
   36000     24.9634    -1151.85
   36100      26.679    -1149.71
   36200     27.4788     -1148.7
   36300     26.5966    -1149.36
   36400     25.6072    -1151.17
   36500     24.9934    -1151.94
   36600     25.5916    -1151.12
   36700     25.2051    -1151.62
   36800     24.7806    -1151.78
   36900     24.6973       -1152
   37000      26.928    -1149.34
   37100     25.9245    -1150.78
   37200     26.2324     -1150.4
   37300     25.4784    -1151.33
   37400     24.8309    -1152.19
   37500     25.8209    -1150.68
   37600     25.3605    -1151.06
   37700     24.2699    -1152.35
   37800     23.9553     -1152.8
   37900     23.5712    -1153.27
   38000     24.7523    -1151.59
   38100     24.6675    -1151.46
   38200      24.538    -1152.05
   38300     25.2193    -1151.14
   38400     25.4202    -1151.23
   38500     26.7533    -1149.34
   38600     28.0019    -1147.64
   38700     28.8054    -1146.55
   38800     29.5892    -1145.42
   38900     30.1488    -1144.67
   39000     29.9211    -1144.97
   39100     31.2518    -1143.44
   39200     30.0312    -1144.79
   39300     29.1036       -1146
   39400     28.5673    -1146.75
   39500     28.6949    -1146.42
   39600     27.2945    -1148.34
   39700     27.0071    -1148.26
   39800     25.3538    -1150.46
   39900     25.1707    -1150.71
   40000     25.6751    -1149.94
   40100     25.1686    -1150.82
   40200     25.4808    -1150.55
   40300     25.1282    -1150.98
   40400      24.649     -1151.4
   40500     23.0712    -1153.81
   40600     22.3789    -1155.09
   40700     22.2531    -1155.09
   40800     23.6695    -1152.72
   40900     23.7361     -1152.2
   41000     23.7596     -1152.4
   41100     23.5094    -1152.91
   41200     24.9525    -1150.93
   41300     24.3416    -1151.47
   41400      23.975     -1152.1
   41500     26.0259    -1149.55
   41600     27.1889    -1148.42
   41700     26.3988    -1149.42
   41800     26.4663    -1149.16
   41900     27.9402     -1146.9
   42000     27.4732    -1147.37
   42100     28.5112    -1145.58
   42200     25.5296    -1149.67
   42300     23.4678    -1152.22
   42400     23.2721    -1152.76
   42500      23.785    -1152.17
   42600     24.5394    -1151.43
   42700      23.031     -1153.5
   42800     23.2826     -1152.8
   42900     23.2971    -1153.14
   43000     23.7948    -1152.74
   43100     22.3429    -1154.48
   43200     22.6083    -1153.85
   43300     23.2717    -1152.85
   43400     22.0785    -1154.59
   43500     23.3433    -1152.89
   43600     23.8698    -1152.32
   43700     23.3798    -1152.99
   43800     22.7187    -1153.82
   43900     22.9891    -1153.58
   44000     21.7099    -1155.06
   44100     20.9838    -1155.91
   44200     20.8714    -1156.24
   44300     20.9363    -1156.21
   44400     21.1194    -1156.27
   44500     20.6031    -1157.06
   44600     21.6196    -1155.81
   44700     20.6256    -1156.82
   44800     21.2916    -1155.96
   44900     22.0548    -1154.92
   45000     22.2248    -1154.86
   45100      22.618    -1154.47
   45200     21.5313    -1155.86
   45300     21.9523    -1155.82
   45400     21.1766    -1156.55
   45500     19.6646    -1158.14
   45600     20.0479    -1157.39
   45700     20.0833    -1157.51
   45800      19.852     -1157.7
   45900      19.518    -1158.12
   46000     19.5855    -1157.89
   46100     19.8515    -1157.77
   46200     19.7715    -1157.65
   46300     18.9465    -1158.55
   46400     20.9736    -1156.11
   46500     21.5401    -1155.57
   46600      21.633    -1155.24
   46700      22.322    -1154.03
   46800     22.5613    -1153.88
   46900      23.025    -1153.53
   47000     22.2531    -1154.52
   47100     21.0604    -1155.83
   47200     20.8786    -1156.22
   47300     19.4372    -1157.98
   47400     18.3184    -1159.71
   47500     17.1014     -1161.1
   47600     17.0559    -1161.42
   47700     16.7834    -1161.95
   47800     18.0564    -1160.39
   47900     17.5565    -1160.68
   48000     16.5878    -1161.78
   48100     17.9268    -1160.07
   48200     18.9823    -1158.68
   48300     17.2671    -1160.87
   48400      18.691    -1158.88
   48500     18.5586    -1159.03
   48600     19.7065    -1157.51
   48700     18.3181    -1159.26
   48800     17.4508    -1160.39
   48900     18.0659    -1159.63
   49000     17.7087    -1160.11
   49100     16.9102    -1161.02
   49200     17.6423    -1159.76
   49300     17.4342    -1159.63
   49400     17.0978    -1160.06
   49500     16.9128    -1160.41
   49600     17.6213    -1159.54
   49700      17.391    -1159.86
   49800     17.8584     -1158.9
   49900     18.1379    -1158.56
   50000     17.4267    -1159.38
   50100     17.5117    -1159.48
   50200     18.0954     -1158.9
   50300     18.9616    -1157.77
   50400     19.3622    -1157.33
   50500      20.044    -1156.33
   50600     19.2271    -1157.35
   50700     19.3779    -1157.59
   50800     20.5947    -1155.85
   50900     20.5888    -1155.27
   51000     20.6173    -1155.11
   51100     21.7279    -1153.58
   51200     21.6881    -1153.67
   51300     21.7666    -1153.63
   51400      22.626    -1152.85
   51500     21.5039    -1154.47
   51600     20.7737    -1155.44
   51700     21.2477    -1154.75
   51800     21.2922    -1154.55
   51900      20.916    -1155.13
   52000     20.9309     -1155.2
   52100     20.5936    -1155.58
   52200     20.0866    -1156.15
   52300      20.365    -1156.23
   52400     20.6337    -1156.02
   52500     22.0043    -1154.07
   52600     22.8599    -1152.79
   52700     22.7176    -1153.06
   52800     23.3394    -1152.34
   52900     23.4664    -1152.28
   53000     22.6428     -1153.5
   53100     23.0928    -1152.83
   53200     23.4285    -1152.66
   53300     25.5444    -1149.63
   53400     25.0974    -1150.34
   53500     24.2556    -1151.57
   53600     23.7677    -1152.05
   53700     24.3395    -1151.74
   53800     24.6534    -1151.07
   53900     23.8605    -1152.41
   54000     23.9508    -1152.09
   54100     22.7737    -1153.53
   54200     21.9966    -1154.76
   54300     21.0163    -1156.02
   54400     21.0436    -1156.02
   54500     20.8861    -1156.03
   54600     21.8604    -1154.93
   54700     21.9195    -1154.59
   54800     20.7038    -1155.92
   54900     21.5963     -1154.6
   55000     21.3307     -1155.3
   55100     21.2836    -1155.62
   55200      20.291    -1156.57
   55300     19.9703    -1157.05
   55400     19.9233    -1157.11
   55500     19.0898    -1158.65
   55600     17.7315    -1160.57
   55700     17.5494    -1160.76
   55800     16.7273       -1162
   55900     15.8036    -1163.09
   56000     16.5693    -1161.83
   56100     16.2201    -1162.27
   56200     17.6753    -1160.28
   56300     17.9004    -1159.94
   56400     17.5891     -1160.4
   56500     17.2561    -1160.77
   56600     16.3445    -1161.97
   56700     16.3885    -1161.92
   56800      16.197    -1162.16
   56900     15.7573    -1162.47
   57000     17.1431    -1160.69
   57100     17.6741    -1159.94
   57200     18.3116    -1158.77
   57300     18.1429    -1158.87
   57400     18.2353     -1158.7
   57500     17.7805    -1159.64
   57600     18.3703    -1158.51
   57700     17.7289    -1159.34
   57800     19.2944     -1157.5
   57900     19.9248    -1156.56
   58000     19.4304    -1157.11
   58100     19.0892    -1157.44
   58200      18.945    -1157.78
   58300     18.7768     -1158.1
   58400     19.2168     -1157.2
   58500     19.4613    -1156.82
   58600     20.5467    -1155.16
   58700     20.0032    -1155.89
   58800     19.3496     -1156.6
   58900     19.5386    -1156.11
   59000     20.1122    -1155.12
   59100     21.0821    -1153.79
   59200     19.7638    -1155.53
   59300     19.7548    -1155.66
   59400     20.6303    -1154.62
   59500     21.3694    -1153.54
   59600     21.1155     -1153.9
   59700     23.2498    -1150.94
   59800     23.9021    -1150.06
   59900     24.0405    -1149.48
   60000     25.2687    -1147.96
   60100     24.1867    -1149.28
   60200     22.7879    -1151.32
   60300     22.5561    -1151.29
   60400     22.8184    -1151.23
   60500      23.043     -1150.8
   60600     22.8524    -1151.12
   60700     23.4929    -1150.24
   60800     22.6173    -1151.24
   60900     23.0372    -1150.71
   61000     21.4251    -1152.94
   61100     22.2222    -1151.83
   61200     22.2393    -1151.64
   61300     23.0695    -1150.65
   61400     22.2916    -1151.75
   61500     22.4772    -1152.05
   61600     23.1874    -1150.92
   61700     24.1827    -1149.77
   61800     22.2699    -1152.39
   61900     23.3545    -1150.83
   62000     23.2143    -1151.28
   62100      24.122    -1150.25
   62200      25.072    -1148.68
   62300     24.3082    -1149.71
   62400     24.0318    -1150.37
   62500     24.3999    -1149.76
   62600     23.9427    -1150.26
   62700     24.4601    -1149.43
   62800     25.0579    -1148.97
   62900     25.4373    -1148.98
   63000       24.68    -1150.09
   63100     25.3756    -1149.58
   63200     26.5469    -1148.14
   63300     26.0386    -1149.03
   63400     26.4216    -1148.56
   63500     25.1379    -1150.34
   63600     24.1372    -1151.47
   63700     25.8255    -1149.27
   63800      27.857    -1146.69
   63900     29.0154    -1145.23
   64000     29.3227    -1144.48
   64100     29.2322    -1144.57
   64200     28.0373    -1146.09
   64300     27.9487    -1145.87
   64400      29.054     -1144.9
   64500     28.8223    -1145.55
   64600     27.8295     -1146.7
   64700     28.1646    -1146.23
   64800     28.7925    -1145.47
   64900     28.1726    -1146.33
   65000     28.4606    -1145.58
   65100     27.4912    -1147.01
   65200     27.9815    -1146.52
   65300     29.6118    -1144.64
   65400     30.1769    -1143.99
   65500     29.5613     -1145.1
   65600      29.285    -1145.34
   65700     27.9399    -1147.44
   65800     26.1279    -1150.11
   65900     24.9047    -1151.89
   66000     23.9534    -1153.53
   66100     25.2373    -1151.79
   66200     23.8307    -1153.44
   66300     23.9814    -1153.41
   66400     24.4575    -1152.35
   66500     24.1231    -1152.62
   66600     23.5947    -1153.46
   66700     23.5005    -1153.42
   66800     24.2858    -1152.54
   66900      22.985    -1154.12
   67000     23.1525    -1154.11
   67100     24.2003    -1152.41
   67200     23.8246    -1152.69
   67300     23.5404    -1153.19
   67400     24.2196    -1152.09
   67500     24.7467    -1151.43
   67600     24.5282    -1151.76
   67700     24.1839    -1152.27
   67800     24.9616    -1151.27
   67900      26.188    -1149.28
   68000     26.4022    -1148.44
   68100      26.785    -1147.91
   68200      26.599    -1148.12
   68300     28.1959     -1145.9
   68400     28.1574    -1145.71
   68500     27.5025    -1146.34
   68600     28.5223    -1144.92
   68700     28.8598    -1144.21
   68800     29.3474    -1143.58
   68900     28.5928    -1144.51
   69000     28.8786    -1144.27
   69100     29.6734    -1143.33
   69200     27.8721    -1145.99
   69300     27.1333    -1146.82
   69400     27.0546    -1146.75
   69500     26.9638    -1146.85
   69600      26.458    -1147.81
   69700     27.3663     -1146.6
   69800     27.2166    -1147.01
   69900     27.6868    -1146.77
   70000     28.3669    -1145.86
   70100     29.5593    -1144.63
   70200     30.0768    -1144.08
   70300     29.7347    -1144.57
   70400     27.8826    -1146.89
   70500      28.477    -1146.17
   70600      27.676    -1147.08
   70700     28.0067    -1146.38
   70800     27.3968    -1147.04
   70900     28.4452    -1146.08
   71000     30.8064    -1143.19
   71100     30.6175    -1143.11
   71200     30.7666     -1143.1
   71300     30.6253    -1143.21
   71400     32.3878    -1140.86
   71500     32.5506    -1140.71
   71600     32.9897    -1140.05
   71700     32.2505    -1140.83
   71800     31.6607    -1141.63
   71900     32.2747    -1141.05
   72000     32.2047     -1141.3
   72100     31.3074    -1142.75
   72200      31.768    -1142.31
   72300     31.9374     -1142.2
   72400     32.8392    -1140.53
   72500     33.1656    -1139.76
   72600     31.9987    -1141.27
   72700     31.3724    -1142.11
   72800     30.7567    -1142.78
   72900     32.1135    -1140.49
   73000     33.2798    -1138.81
   73100      32.532    -1139.66
   73200     32.3057    -1139.89
   73300     32.1583    -1140.06
   73400     32.3437    -1139.41
   73500     30.2388    -1142.11
   73600      29.215    -1143.64
   73700     29.3272    -1143.81
   73800     29.1521    -1143.74
   73900     28.6642    -1144.68
   74000      28.503    -1144.83
   74100     29.3773    -1143.53
   74200     28.9728    -1144.25
   74300     27.3141    -1146.37
   74400     27.7349     -1145.6
   74500     27.4438    -1146.24
   74600     27.1648    -1146.58
   74700     26.0054    -1147.83
   74800     24.1964    -1150.43
   74900     22.0138    -1153.58
   75000      21.979    -1153.25
   75100     22.0976    -1153.29
   75200     21.2304    -1153.95
   75300     21.6712    -1153.26
   75400     21.0509    -1154.31
   75500     19.8483    -1155.74
   75600     19.3362    -1156.21
   75700     19.4705    -1156.44
   75800      19.135    -1157.17
   75900     18.6974     -1157.8
   76000     17.8494    -1158.89
   76100     18.2922    -1158.23
   76200     17.7612    -1158.89
   76300     18.0104    -1158.72
   76400     18.5046    -1158.07
   76500     18.9542    -1157.64
   76600     19.5583    -1157.08
   76700     18.5678    -1158.42
   76800     18.4817    -1158.48
   76900     17.1963    -1160.07
   77000     17.1212    -1159.75
   77100      16.305    -1160.92
   77200     17.3085    -1159.45
   77300      17.936    -1158.89
   77400     18.0901    -1158.36
   77500     18.2334       -1158
   77600     17.9019    -1158.41
   77700     17.3069    -1159.38
   77800     18.0694    -1158.13
   77900     19.6967    -1155.93
   78000     20.3731    -1155.12
   78100     20.3303    -1155.15
   78200     20.6357     -1154.6
   78300      22.262     -1152.5
   78400     21.6787    -1153.26
   78500     22.4262    -1152.15
   78600     22.3627    -1152.28
   78700     22.3724    -1152.39
   78800      23.022    -1151.36
   78900     23.2482    -1150.94
   79000     22.5005    -1152.01
   79100     22.9086    -1151.52
   79200      22.614    -1152.18
   79300     22.3621    -1152.92
   79400     21.7648    -1153.89
   79500      22.069    -1153.35
   79600     21.0582    -1154.66
   79700     22.6196    -1152.34
   79800     22.0902    -1152.78
   79900     23.1523    -1151.51
   80000     23.2442    -1151.29
   80100     22.7334    -1151.61
   80200     23.8238    -1150.46
   80300     24.9981    -1148.64
   80400     25.4974     -1148.2
   80500     26.1693    -1147.56
   80600     26.1462    -1147.37
   80700     25.5819       -1148
   80800     26.1893    -1147.32
   80900      26.065    -1147.48
   81000     26.2094    -1147.24
   81100     25.4888    -1148.32
   81200     24.4879    -1149.75
   81300     25.2674    -1148.56
   81400     24.8844    -1149.02
   81500     24.9292    -1148.85
   81600     24.7087    -1149.59
   81700     25.0932    -1148.96
   81800     25.7784    -1147.99
   81900     25.9861    -1147.67
   82000     24.7905    -1149.38
   82100     25.7524       -1148
   82200     26.4129    -1147.16
   82300     26.7831    -1146.87
   82400     27.4943    -1145.56
   82500     26.9166    -1146.26
   82600     26.4673    -1146.49
   82700      27.322    -1145.28
   82800     26.6825     -1146.2
   82900     26.9582    -1145.67
   83000     26.4502    -1146.24
   83100     26.0912    -1146.65
   83200     26.0869    -1146.39
   83300     26.6633    -1145.89
   83400     28.0952    -1143.89
   83500      28.036    -1143.75
   83600     25.7932     -1147.1
   83700       26.71    -1145.81
   83800     27.6386    -1144.79
   83900     26.5929     -1146.4
   84000     25.5495    -1147.73
   84100     25.8858    -1147.67
   84200     25.6407    -1148.01
   84300     25.2557    -1148.68
   84400     25.0875    -1148.88
   84500     24.7291    -1149.61
   84600     24.6837     -1149.8
   84700     23.7995    -1150.74
   84800      23.395    -1151.19
   84900     23.2479    -1151.34
   85000     23.9599     -1150.3
   85100     23.8465    -1150.23
   85200     23.3879     -1150.7
   85300     22.9685     -1151.2
   85400     24.7243     -1148.7
   85500      23.927    -1149.39
   85600     23.8576    -1149.57
   85700     22.1829    -1151.52
   85800     21.3814    -1152.65
   85900     21.9021     -1151.8
   86000     21.9549    -1151.86
   86100     21.1511    -1153.28
   86200     21.0115     -1153.1
   86300     20.5017    -1153.38
   86400     20.8618    -1152.56
   86500     20.5364    -1152.94
   86600     20.4109    -1153.18
   86700      20.959    -1152.37
   86800     21.4452    -1151.56
   86900     22.3686    -1150.44
   87000     22.5062    -1150.28
   87100     23.2052    -1149.51
   87200     22.0297    -1151.11
   87300     21.3283       -1152
   87400     21.4924    -1151.74
   87500     21.4003    -1152.13
   87600     23.0741    -1149.62
   87700     21.6711    -1151.49
   87800      21.231    -1152.03
   87900     21.4039    -1152.03
   88000     22.4047    -1150.89
   88100      22.173    -1151.12
   88200     22.0226    -1151.13
   88300     23.1909    -1149.38
   88400     23.1748    -1149.98
   88500       22.52    -1150.71
   88600     22.3292    -1150.91
   88700     20.8826    -1152.41
   88800     20.1452    -1153.38
   88900     19.8543       -1154
   89000     20.0711    -1153.65
   89100     19.8916    -1153.67
   89200     20.2271    -1153.32
   89300     20.8226    -1152.56
   89400      20.894    -1152.65
   89500     21.6028    -1151.83
   89600     20.6823    -1153.18
   89700     20.7712    -1152.91
   89800     20.0246    -1154.09
   89900      19.615    -1154.46
   90000     19.3853    -1155.04
   90100     18.7901    -1156.25
   90200     18.2689    -1157.13
   90300     17.3975     -1158.2
   90400     17.4789    -1158.03
   90500     18.1513    -1157.17
   90600     17.0541    -1158.37
   90700     17.0063    -1158.65
   90800     16.2756    -1159.85