       0    -13.5004    -1196.47
     100     -9.2446    -1189.94
     200    -7.04158    -1187.38
     300    -7.14859     -1187.4
     400    -6.40484    -1186.79
     500    -10.3225    -1191.62
     600    -5.32898    -1184.92
     700    -9.01835    -1189.83
     800    -3.10887    -1181.12
     900    0.227245    -1178.31
    1000     6.31057    -1171.01
    1100     7.39314    -1169.98
    1200     2.32946    -1176.58
    1300     7.40521    -1171.04
    1400     8.13107    -1169.76
    1500     6.96138    -1170.64
    1600     7.16262    -1171.05
    1700     9.05415    -1169.66
    1800     16.2481    -1161.52
    1900     17.5674    -1161.05
    2000     20.0481    -1159.17
    2100     16.8203    -1162.99
    2200     20.6182    -1157.71
    2300     19.5595    -1158.74
    2400     23.0843    -1154.36
    2500     19.6917    -1158.59
    2600      16.366    -1163.52
    2700     18.1274    -1160.32
    2800     18.0273    -1161.08
    2900     22.6339    -1154.83
    3000     22.5424    -1155.16
    3100     19.9456    -1159.04
    3200      17.859    -1161.74
    3300     18.6489    -1159.82
    3400     20.9785    -1157.78
    3500     23.3857    -1153.89
    3600     16.8847    -1161.73
    3700     17.8142    -1161.06
    3800     17.4368     -1160.8
    3900     18.6805     -1159.7
    4000     16.8396    -1162.23
    4100     16.8395    -1161.06
    4200     16.9311    -1161.02
    4300     17.7956     -1160.2
    4400     21.4089    -1155.48
    4500     22.2261    -1153.97
    4600     21.2911    -1155.75
    4700     23.4184    -1153.66
    4800     26.9024    -1146.57
    4900     23.3279    -1150.64
    5000     29.3396    -1141.39
    5100      30.158    -1140.54
    5200     29.4679    -1140.86
    5300     29.5296    -1141.07
    5400       24.74    -1147.11
    5500     20.9169    -1152.26
    5600     22.5374    -1150.54
    5700     24.8332    -1149.25
    5800     26.9707    -1146.36
    5900     30.2431    -1141.13
    6000      31.114    -1139.83
    6100     31.4464    -1140.05
    6200     30.3939    -1141.48
    6300      36.949    -1131.97
    6400     36.6418    -1133.63
    6500     38.7661     -1131.8
    6600     40.6874    -1130.81
    6700     37.3524    -1135.71
    6800     38.4191    -1133.21
    6900     40.7447    -1130.05
    7000     44.5483    -1125.34
    7100     41.9385    -1128.54
    7200      43.851     -1126.9
    7300       43.25    -1127.49
    7400     38.8017    -1133.26
    7500      42.821    -1127.01
    7600     47.7407    -1120.14
    7700     52.2396    -1114.03
    7800     53.7007    -1111.62
    7900     55.2821     -1109.7
    8000     53.2118    -1113.11
    8100     59.1131    -1106.27
    8200      60.918    -1104.64
    8300     58.0683    -1109.52
    8400     54.9327    -1114.39
    8500     54.5595     -1114.3
    8600     51.1958    -1118.78
    8700     49.6739    -1121.45
    8800     45.8261    -1126.01
    8900     47.9738     -1124.1
    9000     48.6816    -1123.87
    9100     42.2936    -1131.42
    9200     39.9169    -1134.43
    9300      42.019    -1133.19
    9400     45.9155    -1127.99
    9500     52.6789    -1117.98
    9600     53.0711    -1117.81
    9700     52.3741     -1118.3
    9800     56.4592    -1112.15
    9900     53.8477     -1115.5
   10000     53.2605    -1117.78
   10100     53.0079    -1119.92
   10200     51.0168    -1121.98
   10300     51.3327    -1121.97
   10400     52.7028    -1121.17
   10500     48.8673    -1126.81
   10600     45.2496    -1131.74
   10700     49.1263    -1126.33
   10800     47.2113    -1129.47
   10900     46.5534    -1129.79
   11000     45.7917    -1129.91
   11100     43.9672    -1133.09
   11200     43.6763    -1133.23
   11300      47.612    -1128.48
   11400     46.8953    -1129.49
   11500     42.2953    -1134.91
   11600     43.5896    -1132.56
   11700     48.0706    -1125.96
   11800      49.128    -1124.66
   11900     51.5478    -1122.68
   12000     47.4429    -1126.77
   12100     47.3314    -1125.86
   12200     46.6957    -1127.52
   12300     45.5797    -1128.89
   12400     40.7112    -1137.42
   12500      41.383    -1135.92
   12600     44.1549    -1130.57
   12700     45.8668    -1128.32
   12800      44.505    -1130.16
   12900     41.9808    -1134.56
   13000     37.3929    -1141.41
   13100       36.51    -1142.13
   13200     37.7615    -1139.63
   13300     38.6496    -1138.34
   13400     41.3397    -1136.32
   13500     42.9667    -1133.18
   13600     39.3498    -1136.24
   13700     44.3742    -1129.06
   13800     49.2109    -1124.13
   13900     46.7335    -1127.82
   14000     46.9254    -1126.28
   14100     52.6771    -1117.64
   14200     50.1556    -1121.36
   14300     51.6981    -1119.59
   14400     52.2642     -1119.8
   14500     54.4048    -1118.08
   14600     55.1821    -1117.11
   14700     50.9692    -1122.62
   14800     49.0142    -1125.09
   14900     46.8893    -1128.54
   15000     49.7343    -1127.28
   15100     52.2145    -1123.85
   15200     51.6663    -1124.54
   15300     47.7103    -1129.39
   15400     53.0863     -1124.9
   15500     55.3632    -1122.36
   15600     55.5242    -1122.13
   15700      61.252    -1114.12
   15800     57.7793    -1117.88
   15900     54.8683    -1122.46
   16000     54.4107    -1120.83
   16100     56.9254    -1116.43
   16200     56.3287    -1116.28
   16300      52.525    -1122.12
   16400     58.8454    -1113.43
   16500     55.5458    -1116.86
   16600     53.5553    -1117.91
   16700     60.8573    -1109.58
   16800     68.2083    -1100.67
   16900     70.0091    -1097.47
   17000     62.4871     -1107.3
   17100     58.8224    -1110.89
   17200      61.992    -1106.35
   17300     58.8406    -1110.62
   17400     61.6564    -1108.98
   17500     58.2013     -1113.8
   17600     54.5974    -1118.13
   17700     54.7708    -1118.17
   17800     57.9803    -1113.21
   17900     54.4876    -1119.01
   18000     50.1789    -1124.77
   18100     51.2492    -1125.48
   18200     51.4782    -1125.77
   18300     55.4877    -1119.85
   18400     56.2819    -1117.74
   18500     58.5112    -1115.79
   18600     61.1161       -1112
   18700     61.2937    -1111.56
   18800     68.4159    -1101.74
   18900     72.1642    -1095.73
   19000     67.3275    -1102.33
   19100     68.1714    -1099.94
   19200     67.2343    -1101.42
   19300     65.8889    -1104.24
   19400     65.0033    -1103.97
   19500     57.9354    -1113.24
   19600     47.1352    -1127.59
   19700     46.0006     -1126.3
   19800     46.0784    -1125.79
   19900     44.3499    -1127.49
   20000     46.9085       -1124
   20100     48.7559    -1120.93
   20200     45.8736    -1124.29
   20300     45.5532    -1124.16
   20400     49.6709     -1117.6
   20500     42.4508     -1126.6
   20600     43.3981    -1124.58
   20700     49.3189    -1117.75
   20800      50.023    -1116.21
   20900     54.5092    -1112.36
   21000     57.7002    -1109.34
   21100     57.5748    -1109.46
   21200     61.3301    -1103.83
   21300     66.4375    -1097.41
   21400     63.8216    -1101.82
   21500     64.1618    -1101.73
   21600     57.6828    -1111.07
   21700      57.275    -1111.32
   21800     52.2569    -1117.49
   21900     48.9474    -1123.59
   22000     49.1881    -1123.41
   22100     46.6346    -1126.96
   22200     48.8882    -1124.92
   22300     47.5609     -1127.2
   22400     49.2732       -1126
   22500     47.9769    -1127.51
   22600     45.0999    -1131.05
   22700     41.1718    -1136.53
   22800     44.1183    -1131.57
   22900     40.0838    -1137.64
   23000     40.5526    -1137.23
   23100     38.0967     -1139.5
   23200     43.7321     -1133.7
   23300     42.4524     -1135.8
   23400     43.7758    -1135.65
   23500      45.564    -1132.39
   23600     45.6138    -1132.97
   23700     46.9834    -1130.56
   23800     50.8124    -1125.63
   23900     47.9142    -1130.83
   24000     49.9859    -1128.86
   24100     52.6572    -1124.85
   24200     56.0963    -1120.21
   24300     52.3297     -1124.1
   24400     50.2184    -1126.76
   24500      49.531     -1126.9
   24600      48.974     -1128.4
   24700     47.6161    -1128.87
   24800     45.5817    -1132.16
   24900     42.9796    -1136.06
   25000     44.2123    -1133.76
   25100     51.5602    -1126.64
   25200      52.625     -1123.9
   25300      52.808    -1124.85
   25400     55.7199    -1122.33
   25500     57.3588    -1120.22
   25600     57.4272    -1118.77
   25700     56.4942    -1118.85
   25800     57.4955    -1117.05
   25900     57.1416    -1117.17
   26000     58.7207     -1114.8
   26100     56.0436    -1117.59
   26200     54.3196    -1121.24
   26300     56.5608     -1118.3
   26400     60.4726    -1114.02
   26500     58.3966    -1115.33
   26600     58.6194    -1115.51
   26700     58.4651    -1115.24
   26800     56.0073    -1117.92
   26900     56.7381    -1116.92
   27000     59.3083    -1113.73
   27100     57.0925    -1118.59
   27200     58.9578     -1115.3
   27300      58.234     -1116.2
   27400     54.5962    -1121.01
   27500     57.2493    -1117.18
   27600     52.5605    -1122.04
   27700     53.3932    -1120.61
   27800     50.0004    -1125.07
   27900     57.9548     -1114.5
   28000     60.4923    -1109.97
   28100     58.8262    -1112.41
   28200     60.2559    -1110.62
   28300     61.5011    -1109.86
   28400     62.1569    -1108.68
   28500     63.2541    -1107.31
   28600     61.7084    -1109.99
   28700      65.924    -1104.22
   28800     67.2244    -1101.54
   28900     62.1537     -1108.6
   29000     65.6582    -1103.56
   29100     64.7881    -1104.58
   29200     60.9521    -1108.63
   29300     61.8092    -1107.91
   29400     61.0939    -1108.18
   29500     56.8273    -1113.07
   29600     57.0173    -1112.73
   29700     54.7834    -1114.56
   29800     52.6929    -1118.15
   29900     57.0153    -1112.55
   30000     55.5438    -1114.37
   30100     59.5955    -1107.16
   30200     67.7009    -1097.18
   30300     68.9324    -1094.43
   30400     58.1193     -1108.2
   30500     57.1551    -1110.12
   30600     59.8268    -1107.31
   30700     57.5602    -1110.05
   30800     60.5747     -1106.1
   30900     61.1026    -1105.39
   31000     61.6938    -1103.92
   31100     59.2817     -1108.5
   31200     59.9867     -1107.9
   31300     62.5088    -1104.54
   31400     62.9404     -1104.5
   31500     62.9749    -1105.78
   31600      57.346    -1113.35
   31700     55.2146    -1114.84
   31800     53.6394    -1115.02
   31900     54.2664    -1114.81
   32000     52.4883    -1117.08
   32100     57.6432    -1110.58
   32200     61.0646    -1104.48
   32300     58.1744     -1109.1
   32400     55.4701    -1112.39
   32500     55.7081    -1112.04
   32600     49.6588    -1119.65
   32700     50.6481    -1118.53
   32800     48.4673    -1121.06
   32900       49.56    -1117.68
   33000     49.7742    -1118.47
   33100     44.9746    -1125.04
   33200     44.7557    -1125.75
   33300      40.747    -1133.74
   33400       36.78     -1139.7
   33500     37.9129    -1138.41
   33600     37.5545    -1138.63
   33700     39.6468    -1135.84
   33800     40.2183    -1135.72
   33900     44.6167    -1129.48
   34000     41.4427    -1134.69
   34100     41.1491    -1134.14
   34200     40.8101     -1134.4
   34300      38.983     -1137.7
   34400     42.1189    -1132.65
   34500     42.5106    -1131.02
   34600     42.2518    -1129.75
   34700     43.5638     -1127.8
   34800     41.6616    -1130.65
   34900     39.7745    -1132.63
   35000     36.4709    -1137.04
   35100        34.6    -1139.88
   35200     37.8981    -1134.69
   35300     39.4889    -1133.77
   35400     39.6277    -1133.77
   35500     37.7191       -1137
   35600     38.4889    -1135.09
   35700     45.5491    -1125.44
   35800      44.748    -1127.14
   35900     42.2159    -1130.24
   36000     41.7469    -1129.27
   36100       39.85    -1130.61
   36200     39.8011    -1130.02
   36300     43.1952     -1127.5
   36400     40.5757    -1130.32
   36500      41.982    -1128.59
   36600     42.6251    -1128.56
   36700     40.1199    -1130.16
   36800     44.9487    -1123.75
   36900     44.4807    -1125.79
   37000     44.9421    -1124.41
   37100     40.1896    -1131.47
   37200     38.2391    -1133.23
   37300     38.8343    -1131.87
   37400     41.0257    -1128.45
   37500       45.65     -1123.3
   37600       49.56    -1118.37
   37700     51.2812    -1115.28
   37800     49.7154    -1118.22
   37900     53.0451    -1114.42
   38000     50.9185    -1117.04
   38100     53.6418    -1113.47
   38200     49.5638    -1119.65
   38300      51.898    -1115.58
   38400     47.2478    -1120.89
   38500     49.7894    -1117.63
   38600     45.3452    -1123.95
   38700     47.5732     -1121.2
   38800     46.6726    -1122.02
   38900     44.4033    -1126.78
   39000     48.1961    -1121.24
   39100     43.2488    -1127.99
   39200     39.1724    -1133.94
   39300     41.8611    -1129.42
   39400     39.6575     -1131.8
   39500      40.579    -1129.69
   39600      45.116    -1122.63
   39700     46.0648    -1121.65
   39800     44.3478    -1123.37
   39900      44.003    -1123.16
   40000     44.4889    -1123.29
   40100     44.4251    -1123.67
   40200     48.1821    -1117.06
   40300     48.9756    -1116.87
   40400     48.5744       -1118
   40500     49.4566    -1116.64
   40600     44.6112     -1122.5
   40700     44.8074    -1122.72
   40800     42.8727    -1124.15
   40900     42.0072    -1124.85
   41000     42.2709    -1124.07
   41100     42.3058    -1125.09
   41200     47.0486    -1119.81
   41300     46.4205    -1120.58
   41400     43.9792    -1124.45
   41500     40.8195    -1127.86
   41600     45.6905     -1122.4
   41700     47.5254    -1121.55
   41800     46.5217    -1122.81
   41900     49.4155    -1120.69
   42000      51.748    -1118.42
   42100     51.8806    -1117.37
   42200     49.5538    -1120.79
   42300     53.4943    -1115.37
   42400     53.6157     -1114.8
   42500     53.7462     -1115.1
   42600     50.3174    -1120.14
   42700     50.6302    -1118.71
   42800      54.544    -1113.93
   42900     51.6349    -1117.37
   43000     50.6067    -1119.12
   43100     49.5542    -1120.69
   43200     47.3414    -1123.31
   43300     47.3079    -1123.41
   43400     48.2219    -1122.62
   43500     44.8872    -1127.34
   43600     42.1534    -1131.18
   43700     37.3348    -1137.03
   43800     43.2129    -1128.88
   43900     40.2082    -1132.46
   44000     40.9459    -1130.71
   44100     39.9458    -1132.06
   44200     42.6343    -1128.56
   44300     41.4191    -1129.54
   44400      45.067     -1124.6
   44500     43.3976    -1125.09
   44600     46.4059    -1121.11
   44700     45.2586    -1123.26
   44800     48.1989    -1120.86
   44900     52.6183     -1114.7
   45000      53.662    -1114.36
   45100      55.239    -1111.59
   45200     49.3372    -1119.35
   45300     46.2396    -1123.55
   45400     42.1917    -1130.11
   45500     44.0974    -1126.81
   45600     44.8117    -1127.27
   45700     43.5757    -1129.27
   45800      43.787    -1127.03
   45900     43.4934    -1127.29
   46000     43.7748    -1126.32
   46100     44.3489    -1125.01
   46200     42.2916    -1129.18
   46300     42.7471    -1128.72
   46400     45.5675     -1125.8
   46500     46.4734    -1124.99
   46600     46.9332    -1124.69
   46700     49.6967    -1121.12
   46800     47.9899    -1121.93
   46900     52.3408    -1116.23
   47000     52.4191    -1114.93
   47100     51.3985    -1117.53
   47200     53.6145    -1115.97
   47300     53.7351    -1114.02
   47400      53.037    -1115.24
   47500     51.8005    -1117.88
   47600     45.0303     -1128.7
   47700     44.9673    -1127.92
   47800     44.0815    -1130.24
   47900     47.0746    -1126.12
   48000     40.9719    -1133.45
   48100     40.9286     -1133.2
   48200     39.7286    -1134.84
   48300     37.2993    -1138.51
   48400       37.03     -1137.8
   48500     34.3351    -1141.28
   48600     35.0154     -1140.4
   48700     36.8532    -1137.29
   48800     38.3396    -1135.41
   48900      40.571    -1132.06
   49000     40.8692    -1131.17
   49100     41.4772    -1130.36
   49200     43.2534    -1127.16
   49300     43.3401    -1127.66
   49400     48.7839    -1120.85
   49500       48.34    -1121.09
   49600      48.191    -1121.95
   49700     43.5012     -1126.3
   49800     44.5612    -1125.47
   49900     50.1116    -1119.16
   50000     53.7711    -1113.51
   50100     46.9671    -1123.62
   50200     46.7441    -1124.33
   50300     48.2693    -1121.98
   50400     52.2597    -1116.67
   50500     48.0407    -1123.33
   50600     49.2234    -1121.08
   50700     51.9297    -1118.41
   50800     47.4314    -1124.13
   50900     46.0239    -1128.87
   51000     50.6856    -1123.53
   51100     52.2704    -1121.08
   51200     55.4042    -1117.82
   51300     49.5329    -1125.95
   51400     53.1438    -1119.85
   51500     58.4876    -1112.94
   51600     58.8132    -1111.76
   51700     66.6442     -1099.5
   51800     63.6059    -1103.55
   51900     65.3524    -1102.02
   52000     64.1352    -1104.67
   52100     65.6123    -1103.03
   52200     64.8738    -1103.32
   52300     58.5233    -1111.49
   52400     62.3214    -1106.25
   52500     60.2254    -1110.12
   52600     50.9259    -1121.88
   52700     54.8273    -1115.61
   52800     52.1835    -1119.57
   52900     54.7509    -1116.18
   53000     51.2428    -1121.52
   53100     53.3311    -1118.12
   53200     55.5199    -1115.32
   53300     56.4061    -1114.04
   53400     57.4522    -1114.43
   53500     58.1662    -1112.47
   53600     57.1019    -1112.59
   53700     60.0638    -1110.67
   53800     60.3476    -1109.09
   53900     59.1618    -1110.73
   54000     59.7427    -1109.87
   54100     63.4992    -1103.86
   54200     60.8313    -1108.76
   54300     57.3808    -1112.65
   54400     63.1974    -1104.73
   54500     67.3327    -1099.19
   54600     62.6629    -1105.92
   54700     65.4454    -1102.47
   54800     62.3799    -1106.52
   54900     60.4545    -1108.22
   55000     65.4595    -1101.68
   55100     63.9505    -1103.37
   55200     68.7535    -1096.05
   55300     67.9104    -1096.35
   55400     60.0252    -1107.35
   55500     50.9005    -1118.88
   55600     48.8407    -1122.32
   55700     45.5213    -1126.08
   55800     50.5042    -1119.12
   55900     52.4836    -1117.57
   56000     51.7142     -1120.6
   56100     50.3216     -1122.5
   56200     52.6823    -1118.77
   56300     49.1663    -1122.91
   56400     45.4768    -1127.46
   56500     48.6972    -1124.28
   56600     45.4486     -1130.1
   56700     43.2653    -1132.59
   56800     43.5392     -1132.5
   56900     47.3388    -1126.53
   57000     49.2909    -1122.64
   57100     47.5034    -1125.44
   57200     50.0854    -1121.04
   57300     49.5212    -1120.56
   57400     50.2152    -1119.72
   57500     51.1726    -1118.62
   57600     50.1123    -1120.68
   57700     45.7994    -1126.94
   57800     44.2678     -1129.6
   57900     46.9041    -1125.01
   58000     40.3175     -1133.7
   58100     41.8718    -1132.49
   58200     43.9778    -1129.38
   58300     43.8782    -1128.84
   58400     46.7876    -1125.52
   58500     47.7617    -1122.77
   58600     44.8962     -1125.6
   58700     43.6047     -1128.3
   58800     49.2682     -1121.8
   58900     51.4199    -1119.43
   59000     50.9063     -1120.7
   59100     54.4536    -1116.61
   59200     52.5746    -1118.42
   59300     52.8514    -1118.76
   59400     53.7892    -1117.86
   59500     54.7514    -1115.96
   59600     54.2003    -1117.35
   59700      55.595    -1115.43
   59800     52.5895    -1119.69
   59900     53.1461    -1118.59
   60000     51.6123    -1119.57
   60100     49.5295     -1121.8
   60200     51.2941    -1117.82
   60300     51.5429    -1117.93
   60400     49.9581    -1119.53
   60500     45.5399    -1124.94
   60600     44.9606    -1126.98
   60700      42.275    -1131.49
   60800     42.3069    -1131.39
   60900     39.2559    -1134.97
   61000     40.7694    -1132.24
   61100     41.8282       -1130
   61200     35.7334     -1137.8
   61300     31.7071    -1142.88
   61400     32.6184    -1141.68
   61500     36.9848    -1135.22
   61600     37.7253    -1134.03
   61700     38.1846    -1132.73
   61800      40.574    -1129.21
   61900     38.5566    -1132.97
   62000      39.727    -1132.02
   62100     39.2872    -1132.22
   62200     41.1304    -1129.22
   62300     46.1558       -1123
   62400     51.1659    -1117.01
   62500     52.6768    -1114.65
   62600     47.8941    -1118.48
   62700      49.008    -1118.32
   62800     52.0712     -1116.2
   62900     53.1966    -1114.71
   63000     55.9406    -1112.52
   63100     62.8732    -1103.45
   63200     58.1998    -1108.65
   63300        58.6     -1108.8
   63400     59.8463    -1107.14
   63500     58.8836    -1108.31
   63600     58.0802    -1110.23
   63700     57.5711    -1110.58
   63800     55.1764    -1113.67
   63900     62.2407    -1104.01
   64000     62.7674    -1104.06
   64100     60.2042    -1106.32
   64200     58.2456    -1109.29
   64300     57.1566    -1110.69
   64400     57.0736    -1111.78
   64500     56.4193    -1113.78
   64600     52.0284    -1120.27
   64700     50.7031    -1121.86
   64800     48.7047     -1124.8
   64900       48.82    -1124.17
   65000     46.5963    -1125.59
   65100     53.3921    -1116.51
   65200      50.765    -1120.86
   65300     50.1639     -1121.9
   65400     50.9012    -1121.03
   65500     51.1623    -1120.44
   65600     50.1497    -1121.15
   65700      50.738    -1121.09
   65800     51.1163    -1119.03
   65900     53.2134     -1115.5
   66000     53.1357    -1116.37
   66100     57.5155    -1108.93
   66200     60.1895    -1104.86
   66300     54.4466    -1112.94
   66400     60.4546    -1105.14
   66500     62.4334    -1101.55
   66600     61.9136    -1102.42
   66700     63.2616    -1102.13
   66800     63.5601    -1102.34
   66900      61.797    -1105.32
   67000     64.1816    -1100.41
   67100     63.1589    -1102.17
   67200     61.1753    -1104.18
   67300     58.4629    -1108.04
   67400     59.0966    -1108.07
   67500     62.3928     -1104.9
   67600     62.3657    -1105.16
   67700     57.3962    -1111.88
   67800     56.0609    -1113.82
   67900     56.8749    -1114.14
   68000     58.7564       -1111
   68100     54.8127    -1115.58
   68200     53.6881    -1116.72
   68300     59.9143    -1109.01
   68400      62.082       -1107
   68500      59.758    -1110.32
   68600      61.897    -1107.76
   68700     57.7003    -1112.09
   68800     55.0295    -1114.49
   68900      53.529    -1117.31
   69000     59.8764    -1108.23
   69100     62.5811    -1105.64
   69200     63.5939    -1105.06
   69300     64.6744    -1102.86
   69400      67.734    -1098.46
   69500     66.6762    -1099.27
   69600     68.6548    -1096.34
   69700     68.2183    -1096.61
   69800     65.7519    -1101.23
   69900     68.9643    -1097.52
   70000     70.7261    -1095.25
   70100     73.7029    -1090.64
   70200     71.0758    -1092.65
   70300     76.2955    -1084.61
   70400     72.2721    -1090.82
   70500     71.0263    -1092.54
   70600     63.2254    -1102.28
   70700     62.2488    -1103.91
   70800     63.1434    -1101.47
   70900     55.2466    -1111.51
   71000     56.2844    -1110.55
   71100     52.6765    -1115.14
   71200     56.4602    -1109.85
   71300     58.8656    -1104.83
   71400     57.4044    -1106.51
   71500     55.4684    -1108.74
   71600      55.242    -1110.02
   71700     51.2787     -1114.6
   71800     51.8247    -1114.82
   71900     51.3462    -1115.87
   72000     51.6313    -1115.12
   72100     50.1091     -1116.5
   72200      48.176    -1117.82
   72300     51.1435    -1113.76
   72400     45.4575    -1122.14
   72500     45.2115       -1123
   72600     46.9524     -1120.5
   72700     45.0711    -1123.38
   72800     47.0091    -1122.32
   72900     51.6047    -1116.61
   73000     48.1986    -1121.76
   73100     49.4002    -1120.35
   73200     47.6692    -1122.95
   73300     51.6905    -1118.53
   73400     51.7016     -1119.4
   73500     48.5963    -1122.46
   73600     50.0713     -1121.4
   73700     49.9091    -1120.52
   73800     47.6817    -1123.57
   73900     47.5156    -1123.36
   74000     49.5937    -1120.67
   74100     53.2285    -1115.76
   74200     57.2299    -1111.65
   74300     62.7175    -1103.51
   74400     64.3028    -1101.43
   74500     61.3694    -1105.19
   74600     62.1001    -1104.02
   74700     66.9245    -1096.96
   74800     70.2026    -1094.08
   74900     67.0355    -1097.38
   75000     60.6832    -1105.63
   75100     60.1561    -1106.81
   75200     64.0975    -1101.64
   75300     62.8048    -1104.52
   75400      57.369     -1110.8
   75500     56.2981    -1111.57
   75600     54.7269    -1113.83
   75700     53.5618    -1115.24
   75800     49.5764    -1120.22
   75900     47.2905    -1122.48
   76000     51.4652    -1115.52
   76100     56.2533    -1107.83
   76200     51.9151    -1111.68
   76300     50.6119    -1113.39
   76400     49.9147    -1113.82
   76500     50.0902    -1113.98
   76600     46.4768    -1119.03
   76700     50.4178    -1113.98
   76800     50.7409    -1112.71
   76900     49.0789    -1115.87
   77000     49.7255    -1115.57
   77100       53.45    -1111.45
   77200     47.9332    -1117.95
   77300     51.6936    -1113.41
   77400     57.3821    -1105.95
   77500     55.5218    -1108.31
   77600     51.6878    -1114.23
   77700     53.0746    -1112.65
   77800     52.8225    -1111.97
   77900     52.7189    -1112.21
   78000     57.8406    -1105.88
   78100     56.3244    -1107.75
   78200     54.8293    -1109.88
   78300     52.0443    -1112.62
   78400     49.0311    -1117.09
   78500     44.4637    -1123.08
   78600      42.441    -1125.25
   78700     43.6486    -1125.17
   78800     39.2152    -1130.73
   78900     38.6603    -1132.42
   79000     44.5665    -1124.99
   79100     48.6448    -1119.35
   79200     43.7047    -1125.03
   79300      44.004     -1125.6
   79400     43.7072    -1126.95
   79500     42.2915    -1128.28
   79600     45.1455    -1124.91
   79700     49.6324    -1119.31
   79800     49.3235    -1119.26
   79900     45.9765    -1123.41
   80000     47.5681    -1121.12
   80100     51.9535    -1115.31
   80200     52.6056    -1115.67
   80300     56.9635    -1109.69
   80400     55.1934    -1113.06
   80500     52.7661    -1116.24
   80600     52.8712    -1117.09
   80700     53.9868    -1115.35
   80800     57.2302    -1111.92
   80900     57.7992    -1111.74
   81000     54.9272    -1115.79
   81100      52.583    -1117.94
   81200     51.6765    -1119.69
   81300     50.8728    -1120.78
   81400     54.2896    -1115.19
   81500     50.8181    -1119.54
   81600     50.3144     -1120.8
   81700     54.1516    -1115.85
   81800     59.5361    -1107.91
   81900     54.8943    -1114.76
   82000     53.8773    -1115.86
   82100     55.9498    -1112.46
   82200     59.0984    -1108.14
   82300     53.4949    -1116.21
   82400     53.1741    -1117.58
   82500      54.917    -1115.65
   82600     49.8405    -1120.65
   82700     48.8904    -1120.25
   82800     45.9322    -1125.19
   82900     48.0361    -1122.64
   83000      50.774    -1119.09
   83100     49.1332    -1122.02
   83200     46.1996    -1125.46
   83300     50.7849    -1119.07
   83400     44.9658    -1127.57
   83500     50.5155    -1120.62
   83600     51.2616    -1119.92
   83700     50.2409    -1120.52
   83800     53.5262    -1117.14
   83900     56.5692    -1112.23
   84000     52.9023    -1116.39
   84100     51.3093    -1117.81
   84200     54.8002    -1111.74
   84300     59.0659    -1106.07
   84400     59.8496    -1103.77
   84500     56.7674    -1108.01
   84600     55.5719    -1108.63
   84700     57.5254    -1106.99
   84800     56.6498     -1107.4
   84900     49.4676    -1117.51
   85000     51.3514    -1116.47
   85100     49.4948    -1119.52
   85200     50.8177    -1118.28
   85300     48.5926    -1120.73
   85400      47.853    -1122.37
   85500     46.1696    -1126.98
   85600      48.032    -1123.38
   85700     54.0554    -1115.72
   85800     56.0889     -1113.6
   85900     58.7137    -1108.72
   86000     57.6726    -1111.76
   86100     55.5131    -1115.09
   86200     52.9989    -1119.28
   86300      57.796    -1113.24
   86400     55.9229    -1116.04
   86500     59.7513    -1111.96
   86600     56.0506    -1116.05
   86700     53.7113    -1117.86
   86800      57.705    -1112.22
   86900      63.571    -1103.51
   87000      58.984     -1107.2
   87100     60.2545    -1105.91
   87200     56.0299     -1112.3
   87300     54.6245    -1114.72
   87400     50.1504       -1120
   87500     49.4298     -1121.5
   87600     49.0031    -1120.61
   87700     51.3363    -1118.12
   87800     56.0042    -1113.21
   87900     56.2114     -1112.5
   88000     57.9687     -1110.2
   88100     59.5648    -1107.96
   88200     55.6726    -1115.21
   88300     60.7426    -1107.51
   88400     61.6506    -1106.56
   88500     60.9872     -1108.6
   88600     62.9363    -1105.44
   88700     57.2814    -1112.04
   88800     55.8584    -1113.42
   88900     54.3856    -1115.41
   89000     49.2834    -1122.36
   89100     49.9163    -1121.06
   89200     49.6896    -1121.31
   89300     46.6746    -1124.65
   89400     46.3164    -1125.15
   89500     46.1941    -1125.42
   89600     48.3714    -1121.96
   89700     45.5299    -1124.22
   89800      41.408    -1129.62
   89900     45.5609     -1123.6
   90000     44.8556    -1123.62
   90100     47.6745    -1120.95
   90200      49.071    -1118.89
   90300     48.8671    -1119.78
   90400     51.1509    -1118.28
   90500     52.2928    -1115.29
   90600     52.3946    -1114.85
   90700     58.1426    -1106.58
   90800     56.4872    -1109.55