       0       80.74    -1196.47
     100     155.893     4641.38
     200     155.893     4641.38
     300     155.893     4641.38
     400     155.924     4648.08
     500     155.916     4650.17
     600     161.122     5194.05
     700      155.92     4659.05
     800      155.92     4659.05
     900      155.93     4667.94
    1000      155.93     4667.94
    1100      155.93     4667.94
    1200     155.961     4677.51
    1300     155.961     4677.51
    1400     180.482     29876.3
    1500     156.001      4686.2
    1600     156.001      4686.2
    1700     156.023     4696.31
    1800     156.023     4696.31
    1900     156.023     4696.31
    2000     156.053     4704.83
    2100     156.053     4704.83
    2200     156.053     4704.83
    2300     156.036     4714.38
    2400     156.036     4714.38
    2500      156.07     4721.79
    2600     156.071     4722.85
    2700     156.071     4722.85
    2800      156.07     4732.01
    2900      156.07     4732.01
    3000      156.07     4732.01
    3100     156.084     4738.94
    3200     156.084     4738.94
    3300     54347.7     13830.5
    3400     156.103     4748.07
    3500     156.103     4748.07
    3600     156.073     4756.31
    3700     156.073     4756.31
    3800     156.073     4756.31
    3900     156.062     4764.14
    4000     156.062     4764.14
    4100     156.062     4764.14
    4200     156.062      4771.8
    4300     156.062      4771.8
    4400     257.876 5.26723e+07
    4500     156.092     4781.51
    4600     156.092     4781.51
    4700     156.102     4790.95
    4800     156.102     4790.95
    4900     156.102     4790.95
    5000     156.099     4801.33
    5100     156.099     4801.33
    5200     156.099     4801.33
    5300     156.115     4810.35
    5400     156.115     4810.35
    5500      207.86 6.64071e+06
    5600     156.144     4821.17
    5700     156.144     4821.17
    5800     156.177     4903.22
    5900     156.156     4830.28
    6000     156.156     4830.28
    6100     156.174     4838.07
    6200     156.174     4838.07
    6300     156.174     4838.07
    6400     156.143     4845.08
    6500     156.143     4845.08
    6600     156.143     4845.08
    6700     156.143     4845.08
    6800     156.143     4845.08
    6900     156.154      4853.9
    7000     156.154     4853.94
    7100     156.154     4853.94
    7200     156.183     4864.09
    7300     156.183     4864.09
    7400     156.183     4864.09
    7500     156.185     4871.88
    7600     156.185     4871.88
    7700     156.185     4871.88
    7800     156.189     4880.71
    7900     156.189     4880.71
    8000     675.527     6529.25
    8100      156.14     4887.78
    8200      156.14     4887.78
    8300     156.155     4895.01
    8400     156.155     4895.01
    8500     156.155     4895.01
    8600     156.152     4904.28
    8700     156.152     4904.28
    8800     156.152     4904.28
    8900     156.162     4913.35
    9000     156.162     4913.35
    9100     63054.4      5982.4
    9200     156.198     4922.97
    9300 5.91507e+07     12033.4
    9400     156.219     4938.39
    9500     156.219     4938.39
    9600     156.219     4938.39
    9700     156.228     4947.37
    9800     156.228     4947.37
    9900     156.228     4947.37
   10000     156.209     4955.09
   10100     156.209     4955.09
   10200     156.209     4955.09
   10300     156.194     4962.93
   10400     156.194     4962.93
   10500     156.194     4962.93
   10600     156.194     4962.93
   10700     156.194     4962.93
   10800     156.211      4971.1
   10900     156.211     4971.19
   11000     156.211     4971.19
   11100     156.221     4977.85
   11200     156.221     4977.85
   11300     156.221     4977.85
   11400     156.221     4986.66
   11500     156.221     4986.66
   11600     156.221     4986.66
   11700     156.219     4994.92
   11800     156.219     4994.92
   11900     156.762     5355.24
   12000     156.246     5000.82
   12100     156.246     5000.82
   12200     156.246     5000.82
   12300     156.246     5000.82
   12400     156.246     5000.82
   12500     9836.66     47810.1
   12600     156.245     5008.88
   12700     156.245     5008.88
   12800     88.3085    -249.869
   12900     88.3085    -249.869
   13000     88.3085    -249.869
   13100     88.3091    -241.264
   13200     88.3091    -241.264
   13300     88.3091    -241.264
   13400     88.3028    -234.311
   13500     88.3028    -234.311
   13600     191.259 3.73948e+06
   13700     88.3274    -225.755
   13800     88.3274    -225.755
   13900     88.3274    -225.755
   14000     88.3274    -225.755
   14100     88.3274    -225.755
   14200     88.3572    -216.354
   14300     88.3572    -216.354
   14400     88.3572    -216.354
   14500     88.3632    -207.933
   14600     88.3632    -207.933
   14700     88.3632    -207.933
   14800      88.367    -198.702
   14900      88.367    -198.702
   15000      88.367    -198.702
   15100     88.3731    -200.244
   15200     88.3875    -191.851
   15300     88.3875    -191.851
   15400     88.3778    -185.406
   15500     88.3778    -185.406
   15600     88.3778    -185.406
   15700     88.3237    -179.572
   15800     88.3237    -179.572
   15900     88.3235    -179.696
   16000     88.3237    -179.572
   16100     88.3237    -179.572
   16200     88.3237    -179.572
   16300     88.3237    -179.572
   16400     88.3237    -179.572
   16500     88.3238    -172.166
   16600     88.3238    -172.166
   16700     88.3238    -172.166
   16800     88.3384     -164.46
   16900     88.3384     -164.46
   17000     88.3384     -164.46
   17100     88.3394    -157.902
   17200     88.3394    -157.902
   17300     88.3394    -157.902
   17400     88.3677    -150.111
   17500     88.3677    -150.111
   17600     88.3677    -150.111
   17700     88.3846    -141.937
   17800     88.3846    -141.937
   17900     88.3846    -141.937
   18000      88.414    -135.877
   18100      88.414    -135.877
   18200      88.414    -135.877
   18300        88.4    -128.096
   18400        88.4    -128.096
   18500     99.3595     862.903
   18600     88.4029    -121.359
   18700     88.4029    -121.359
   18800     2058.42     3428.37
   18900     88.3919    -116.839
   19000     88.3919    -116.839
   19100     88.4058    -110.429
   19200     88.4058    -110.429
   19300     88.4058    -110.429
   19400     88.4058    -110.429
   19500     88.4058    -110.429
   19600     88.4058    -110.429
   19700     88.4058    -110.429
   19800     88.4058    -110.429
   19900     88.4058    -110.429
   20000     88.4031    -104.702
   20100     88.4031    -104.702
   20200     88.4031    -104.702
   20300     88.3973    -97.6001
   20400     88.3973    -97.6001
   20500     88.3973    -97.6001
   20600     88.3669    -89.5779
   20700     88.3669    -89.5779
   20800     88.3669    -89.5779
   20900     88.3842     -83.174
   21000     88.3842     -83.174
   21100     88.3842     -83.174
   21200     88.3761    -78.1199
   21300     88.3761    -78.1199
   21400     88.3761    -78.1199
   21500     88.3881    -71.5423
   21600     88.3881    -71.5423
   21700     244.831    -51.9368
   21800     88.3914    -65.6057
   21900     88.3914    -65.6057
   22000     312.011     1517.29
   22100     88.3926    -59.3519
   22200     88.3926    -59.3519
   22300     88.3926    -59.3519
   22400     88.3926    -59.3519
   22500     88.3926    -59.3519
   22600     88.4189    -52.6329
   22700     88.4189    -52.6329
   22800     88.4189    -52.6329
   22900     88.4387    -46.8253
   23000     88.4388    -46.7883
   23100     88.4388    -46.7883
   23200     88.4465    -41.9091
   23300     88.4465    -41.9091
   23400     88.4465    -41.9091
   23500     88.4526    -34.5457
   23600     88.4526    -34.5457
   23700     88.4526    -34.5457
   23800      88.452    -30.6952
   23900      88.452    -30.6952
   24000      88.452    -30.6952
   24100     88.4151     -23.415
   24200     88.4152    -23.3963
   24300     88.4152    -23.3963
   24400     88.4152    -23.3963
   24500     88.4152    -23.3963
   24600     88.4152    -23.3963
   24700     88.4152    -23.3963
   24800     88.4152    -23.3963
   24900     88.4152    -23.3963
   25000     88.4242    -14.1511
   25100     88.4242    -14.1511
   25200     88.4242    -14.1511
   25300     88.4431    -6.40535
   25400     88.4431    -6.40535
   25500     88.4431    -6.40535
   25600     88.4536   -0.232855
   25700     88.4536   -0.232855
   25800     88.4536   -0.232855
   25900     88.4536   -0.232855
   26000     88.4536   -0.232855
   26100     88.4536   -0.232855
   26200     88.4526     6.00529
   26300     88.4526     6.00529
   26400     88.4526     6.00529
   26500     88.4695     13.1217
   26600     88.4695     13.1217
   26700     88.4695     13.1217
   26800     88.4695     13.1217
   26900     88.4695     13.1217
   27000     88.4695     13.1217
   27100     88.4695     13.1217
   27200     88.4695     13.1217
   27300     88.4695     13.1217
   27400     88.5015     21.6345
   27500     88.5015     21.6345
   27600     88.5015     21.6345
   27700     88.5062     28.2484
   27800     88.5062     28.2484
   27900     88.5062     28.2484
   28000     88.5113     35.5083
   28100     88.5113     35.5083
   28200     88.5113     35.5083
   28300      88.532     42.7946
   28400      88.532     42.7946
   28500      88.532     42.7946
   28600      88.532     42.7946
   28700      88.532     42.7946
   28800      88.532     42.7946
   28900      88.532     42.7946
   29000      88.532     42.7946
   29100      88.532     42.7946
   29200     88.5453     47.9151
   29300     88.5453     47.9151
   29400     88.5453     47.9151
   29500     88.5398     56.5908
   29600     88.5398     56.5908
   29700     88.5398     56.5908
   29800      88.562     63.5007
   29900      88.562     63.5007
   30000      88.562     63.5007
   30100     88.5707     71.2021
   30200     88.5707     71.2021
   30300     88.5707     71.2021
   30400     88.5707     71.2021
   30500     88.5707     71.2021
   30600     88.5707     71.2021
   30700     88.5707     71.2021
   30800     88.5707     71.2021
   30900     88.5707     71.2021
   31000     88.5707     71.2021
   31100     88.5707     71.2021
   31200     88.5707     71.2021
   31300      88.574     76.4583
   31400      88.574     76.4583
   31500      88.574     76.4583
   31600     88.5873     82.2214
   31700     88.5874     82.2317
   31800     88.5874     82.2317
   31900     88.5973     86.3183
   32000     88.5973     86.3183
   32100     88.5973     86.3183
   32200     88.6043     93.2626
   32300     88.6043     93.2626
   32400     88.6043     93.2626
   32500     88.6133     96.9034
   32600     88.6133     96.9034
   32700     88.6133     96.9034
   32800     88.6133     96.9034
   32900     88.6133     96.9034
   33000     88.6133     96.9034
   33100     91.4011     860.889
   33200     88.6285     103.477
   33300     88.6285     103.477
   33400     88.6089     108.312
   33500     88.6089     108.312
   33600     88.6089     108.312
   33700     88.5745     112.879
   33800     88.5745     112.885
   33900     88.5745     112.885
   34000     37142.2     19101.4
   34100     88.5875     117.219
   34200     88.5875     117.219
   34300     88.5875     117.219
   34400     88.5875     117.219
   34500     88.5875     117.219
   34600     88.5875     117.219
   34700     88.5875     117.219
   34800     88.5875     117.219
   34900     315.601     3644.13
   35000     88.5847     122.962
   35100     88.5847     122.962
   35200     88.5847     122.962
   35300     88.5698     128.452
   35400     88.5698     128.452
   35500     88.5698     128.452
   35600     88.5644     134.148
   35700     88.5644     134.148
   35800     88.5644     134.148
   35900     88.5763     141.867
   36000     88.5763     141.867
   36100     88.5763     141.867
   36200     88.5763     141.867
   36300     88.5763     141.867
   36400     88.5763     141.867
   36500     88.5278      144.61
   36600     88.5278      144.61
   36700     88.5278      144.61
   36800     88.5278      144.61
   36900     88.5278      144.61
   37000     88.5278      144.61
   37100     88.5439     150.259
   37200     88.5439     150.259
   37300     88.5439     150.259
   37400     88.5439     150.259
   37500     88.5439     150.259
   37600     88.5439     150.259
   37700     88.5671     157.156
   37800     88.5671     157.156
   37900     88.5671     157.156
   38000     88.5671     157.156
   38100     88.5671     157.156
   38200     88.5671     157.156
   38300     88.5671     157.156
   38400     88.5671     157.156
   38500     88.5671     157.156
   38600     88.5891     166.996
   38700     88.5716     162.652
   38800     88.5716     162.652
   38900     373.889     465.644
   39000     88.5741     169.074
   39100     88.5741     169.074
   39200     88.5741     169.074
   39300      88.584     174.297
   39400      88.584     174.297
   39500      88.584     174.297
   39600     88.5734     181.472
   39700     88.5734     181.472
   39800     88.5734     181.472
   39900     88.5734     181.472
   40000     88.5734     181.472
   40100     88.5734     181.472
   40200     88.5864     188.897
   40300     88.5864     188.897
   40400     88.5864     188.897
   40500     88.5648     191.155
   40600     88.5648     191.155
   40700     88.5648     191.155
   40800     88.5533     197.659
   40900     88.5533     197.659
   41000     88.5533     197.659
   41100     88.5723     203.568
   41200     88.5723     203.568
   41300     88.5723     203.568
   41400     88.5795     208.208
   41500     88.5813     208.712
   41600     88.5813     208.712
   41700     110.674     1532.99
   41800     88.5894     214.294
   41900     88.5894     214.294
   42000     90.5209     225.447
   42100     88.6038     219.101
   42200     88.6038     219.101
   42300     88.6038     219.101
   42400     88.6038     219.101
   42500     88.6038     219.101
   42600     88.6038     219.101
   42700     88.6038     219.101
   42800     88.6038     219.101
   42900     88.6038     219.101
   43000     88.5755     225.704
   43100     88.5755     225.704
   43200     88.5755     225.704
   43300     88.5753     225.701
   43400     88.5755     225.704
   43500     88.5755     225.704
   43600     88.5952     231.168
   43700     88.5952     231.168
   43800     88.5952     231.168
   43900     88.5981     234.463
   44000     88.6001     235.577
   44100     88.6001     235.577
   44200     88.6001     235.577
   44300     88.6001     235.577
   44400     88.6001     235.577
   44500     88.6001     235.577
   44600     88.5962     238.329
   44700     88.5962     238.329
   44800     88.5962     238.329
   44900     88.5962     238.329
   45000     88.5962     238.329
   45100     88.5962     238.329
   45200     88.5726     242.617
   45300     88.5726     242.617
   45400     88.5726     242.617
   45500     88.5745     246.798
   45600     88.5745     246.798
   45700     88.5745     246.798
   45800     88.5745     246.798
   45900     88.5745     246.798
   46000     88.5745     246.798
   46100     88.5745     246.798
   46200     88.5745     246.798
   46300     88.5745     246.798
   46400     392.157     431.936
   46500     88.5753     253.311
   46600     88.5753     253.311
   46700     88.5753     253.311
   46800     88.5821     259.642
   46900     88.5821     259.642
   47000     88.5821     259.642
   47100     88.5643     262.326
   47200     88.5643     262.326
   47300     88.5643     262.326
   47400     88.5643     262.326
   47500     88.5643     262.326
   47600     88.5643     262.326
   47700     88.5643     262.326
   47800     88.5643     262.326
   47900     88.5643     262.326
   48000     88.5643     262.326
   48100     88.5643     262.326
   48200     88.5643     262.326
   48300     88.5643     262.326
   48400     88.5643     262.326
   48500     88.5643     262.326
   48600     88.5643     262.326
   48700     88.5588     266.292
   48800     88.5588     266.292
   48900     88.5588     266.292
   49000     88.5748     272.123
   49100     88.5748     272.123
   49200     88.5748     272.123
   49300     88.5756     277.449
   49400     88.5756     277.449
   49500     88.5756     277.449
   49600     88.5831     283.272
   49700     88.5831     283.272
   49800     88.5831     283.272
   49900     88.5831     283.272
   50000     88.5831     283.272
   50100     88.5831     283.272
   50200     88.5831     283.272
   50300     88.5831     283.272
   50400     88.5831     283.272
   50500     88.5831     283.272
   50600     88.5934     288.399
   50700     88.5934     288.399
   50800     88.5934     288.399
   50900     88.5934     288.399
   51000     88.5934     288.399
   51100     88.5934     288.399
   51200     88.5949     293.807
   51300     88.5949     293.807
   51400     88.5949     293.807
   51500     88.5949     293.807
   51600     88.5949     293.807
   51700     88.5949     293.807
   51800     88.5998     296.751
   51900     88.6002     297.065
   52000     88.6002     297.065
   52100     88.6002     297.065
   52200     88.6002     297.065
   52300     88.6002     297.065
   52400     88.6002     297.065
   52500     88.6002     297.065
   52600     88.6002     297.065
   52700     88.6002     297.065
   52800     88.6002     297.065
   52900     88.6002     297.065
   53000     88.6002     297.065
   53100     88.5993     302.389
   53200     88.5993     302.389
   53300     88.5993     302.389
   53400     88.6038     306.205
   53500     88.6038     306.206
   53600     88.6038     306.206
   53700 1.82732e+07 7.06579e+07
   53800     383.279       22079
   53900     88.6199      311.52
   54000     88.6199      311.52
   54100     88.6199      311.52
   54200     88.6199      311.52
   54300     88.6199      311.52
   54400     88.6367     315.413
   54500     88.6367     315.413
   54600     88.6367     315.413
   54700     88.6367     315.413
   54800     88.6367     315.413
   54900     88.6367     315.413
   55000     88.6367     315.413
   55100     88.6367     315.413
   55200     88.6367     315.413
   55300     88.6367     315.413
   55400     88.6367     315.413
   55500     88.6367     315.413
   55600     88.6367     315.413
   55700     88.6367     315.413
   55800     88.6367     315.413
   55900     88.6367     315.413
   56000     88.6367     315.413
   56100     88.6367     315.413
   56200     88.6367     315.413
   56300     88.6367     315.413
   56400     88.6367     315.413
   56500     88.6367     315.413
   56600     88.6416     318.808
   56700     88.6416     318.808
   56800     88.6416     318.808
   56900     2783.92      526306
   57000     88.6588     323.467
   57100     88.6588     323.467
   57200     88.6588     323.467
   57300     88.6588     323.467
   57400     88.6588     323.467
   57500     88.6588     323.467
   57600     88.6588     323.467
   57700     88.6588     323.467
   57800     88.6588     323.467
   57900     88.6564     326.093
   58000     88.6564     326.093
   58100     88.6564     326.093
   58200     5333.28     3401.07
   58300     88.6724     328.636
   58400     88.6724     328.636
   58500     88.6796     331.119
   58600     88.6797      331.21
   58700     88.6797      331.21
   58800     88.6797      331.21
   58900       88.67     335.445
   59000       88.67     335.445
   59100       88.67     335.445
   59200       88.67     335.445
   59300       88.67     335.445
   59400       88.67     335.445
   59500       88.67     335.445
   59600       88.67     335.445
   59700       88.67     335.445
   59800      89.362     341.472
   59900     88.6792     340.931
   60000     88.6792     340.931
   60100     88.6792     340.931
   60200     88.6792     340.931
   60300     88.6792     340.931
   60400     88.6792     340.931
   60500     88.6792     340.931
   60600     88.6792     340.931
   60700     88.6792     340.931
   60800     88.6792     340.931
   60900     88.6792     340.931
   61000     88.6792     340.931
   61100     88.6792     340.931
   61200     88.6792     340.931
   61300     88.6792     340.931
   61400     88.6869     343.663
   61500     88.6877     344.048
   61600     88.6877     344.048
   61700     88.6877     344.048
   61800     88.6877     344.048
   61900     88.6877     344.048
   62000     88.6877     344.048
   62100     88.6877     344.048
   62200     88.6877     344.048
   62300     88.6877     344.048
   62400     88.6877     344.048
   62500     88.6877     344.048
   62600     88.6877     344.048
   62700     88.6945     348.603
   62800     88.6941     347.823
   62900     88.6945     348.603
   63000     88.6945     348.603
   63100     88.6945     348.603
   63200     88.6945     348.603
   63300     88.6945     348.603
   63400     88.6945     348.603
   63500     88.6945     348.603
   63600     88.6945     348.603
   63700     88.6945     348.603
   63800     88.6945     348.603
   63900     88.6945     348.603
   64000     88.6945     348.603
   64100     88.6945     348.603
   64200     88.6945     348.603
   64300     88.6945     348.603
   64400     88.6945     348.603
   64500     88.6945     348.603
   64600     88.6945     348.603
   64700     88.6945     348.603
   64800     88.6945     348.603
   64900     88.6945     348.603
   65000     88.6945     348.603
   65100     88.6945     348.603
   65200     88.6945     348.603
   65300     88.6959     350.584
   65400     88.6959     350.584
   65500     88.6959     350.584
   65600     88.6959     350.584
   65700     88.6959     350.584
   65800     88.6959     350.584
   65900     88.6959     350.584
   66000     88.6959     350.584
   66100     88.6959     350.584
   66200     88.6959     350.584
   66300     88.6959     350.584
   66400     88.6959     350.584
   66500     88.6959     350.584
   66600     88.6959     350.584
   66700     88.6959     350.584
   66800     88.6959     350.584
   66900     88.6959     350.584
   67000     88.6959     350.584
   67100     88.6959     350.584
   67200     88.7011     352.527
   67300     88.7011     352.527
   67400     88.7011     352.527
   67500     88.6928     354.568
   67600     88.6928     354.568
   67700     88.6928     354.568
   67800      96.605      357.32
   67900     88.6661     358.568
   68000     88.6661     358.568
   68100     88.6661     358.568
   68200     88.6661     358.568
   68300     88.6661     358.568
   68400     88.6661     358.568
   68500     88.6688     362.693
   68600     88.6688     362.693
   68700     88.6688     362.693
   68800     88.6772     365.949
   68900     88.6772     365.949
   69000     88.6772     365.949
   69100     88.6772     365.949
   69200     88.6772     365.949
   69300     88.6772     365.949
   69400     88.6772     365.949
   69500     88.6772     365.949
   69600     88.6772     365.949
   69700     88.6772     365.949
   69800     88.6772     365.949
   69900     88.6772     365.949
   70000     88.6772     365.949
   70100     88.6772     365.949
   70200     88.6772     365.949
   70300     88.6772     365.949
   70400     88.6772     365.949
   70500     88.6772     365.949
   70600     88.6772     365.949
   70700     88.6772     365.949
   70800     88.6772     365.949
   70900     88.6772     365.949
   71000     88.6772     365.949
   71100     88.6878     370.422
   71200     88.6878     370.422
   71300     88.6878     370.422
   71400     88.6878     370.422
   71500     88.6878     370.422
   71600     88.6878     370.422
   71700     88.6878     370.422
   71800     88.6878     370.422
   71900     88.6878     370.422
   72000     88.8693     394.059
   72100      88.665     373.888
   72200      88.665     373.888
   72300      88.665     373.888
   72400      88.665     373.888
   72500      88.665     373.888
   72600      88.665     373.888
   72700      88.665     373.888
   72800      88.665     373.888
   72900      88.665     373.888
   73000     88.7946     397.572
   73100      88.665     373.888
   73200      88.665     373.888
   73300      88.665     373.888
   73400      88.665     373.888
   73500      88.665     373.888
   73600      88.665     373.888
   73700      88.665     373.888
   73800      88.665     373.888
   73900      88.665     373.888
   74000      88.665     373.888
   74100      88.665     373.888
   74200      88.665     373.888
   74300     89.3345     377.041
   74400     88.6698     375.865
   74500     88.6698     375.865
   74600     88.6698     375.865
   74700     88.6698     375.865
   74800     88.6698     375.865
   74900     88.6698     375.865
   75000      88.683     378.957
   75100      88.683     378.957
   75200      88.683     378.957
   75300     88.6901     383.567
   75400     88.6901     383.567
   75500     88.6901     383.567
   75600     88.6901     383.567
   75700     88.6901     383.567
   75800     88.6901     383.567
   75900     88.8586     383.567
   76000      88.686      387.82
   76100      88.686      387.82
   76200      88.686      387.82
   76300      88.686      387.82
   76400      88.686      387.82
   76500      88.686      387.82
   76600      88.686      387.82
   76700      88.686      387.82
   76800      88.686      387.82
   76900      88.686      387.82
   77000      88.686      387.82
   77100      88.686      387.82
   77200      88.686      387.82
   77300      88.686      387.82
   77400      88.686      387.82
   77500      88.686      387.82
   77600      88.686      387.82
   77700      88.686      387.82
   77800      88.686      387.82
   77900      88.686      387.82
   78000      88.686      387.82
   78100      88.686      387.82
   78200      88.686      387.82
   78300      88.686      387.82
   78400      88.686      387.82
   78500      88.686      387.82
   78600      88.686      387.82
   78700      88.686      387.82
   78800      88.686      387.82
   78900      88.686      387.82
   79000      88.686      387.82
   79100      88.686      387.82
   79200      88.686      387.82
   79300      88.686      387.82
   79400      88.686      387.82
   79500      88.686      387.82
   79600      88.686      387.82
   79700      88.686      387.82
   79800      88.686      387.82
   79900      88.686      387.82
   80000      88.686      387.82
   80100      88.686      387.82
   80200     89.0416     390.859
   80300     88.7059     391.323
   80400     88.7059     391.323
   80500     96.4061     1057.52
   80600     81.2359    -162.116
   80700     81.2359    -162.116
   80800     81.2359    -162.116
   80900      81.206    -160.523
   81000      81.206    -160.523
   81100      81.206    -160.523
   81200      81.206    -160.523
   81300      81.206    -160.523
   81400      81.206    -160.523
   81500      81.206    -160.523
   81600      81.206    -160.523
   81700      81.206    -160.523
   81800      81.206    -160.523
   81900     81.2012     -156.57
   82000     81.2012     -156.57
   82100     81.2012     -156.57
   82200     81.2012     -156.57
   82300     81.2012     -156.57
   82400     81.2012     -156.57
   82500     84.5735     45.8817
   82600      81.186    -151.964
   82700      81.186    -151.964
   82800      81.186    -151.964
   82900     81.1968     -150.52
   83000     81.1968     -150.52
   83100     81.1968     -150.52
   83200     81.1968     -150.52
   83300     81.1968     -150.52
   83400     81.1968     -150.52
   83500     81.1968     -150.52
   83600     81.1968     -150.52
   83700     81.1968     -150.52
   83800     81.1968     -150.52
   83900     81.2031    -146.391
   84000     81.2031    -146.391
   84100     81.2031    -146.391
   84200     81.2131    -142.699
   84300     81.2131    -142.699
   84400     81.2131    -142.699
   84500     81.2131    -142.699
   84600     81.2131    -142.699
   84700     81.2131    -142.699
   84800     81.2131    -142.699
   84900     81.2131    -142.699
   85000     81.2131    -142.699
   85100     81.2131    -142.699
   85200     81.2033    -139.531
   85300     81.2033    -139.531
   85400     81.2033    -139.531
   85500     81.2033    -139.531
   85600     81.2033    -139.531
   85700     81.2033    -139.531
   85800     81.2033    -139.531
   85900     81.2033    -139.531
   86000     81.2033    -139.531
   86100     81.2033    -139.531
   86200     81.2091    -135.614
   86300     81.2091    -135.614
   86400     81.2083    -135.859
   86500     81.2091    -135.614
   86600     81.2091    -135.614
   86700     81.2091    -135.614
   86800     81.2091    -135.614
   86900     81.2091    -135.614
   87000     81.2091    -135.614
   87100     81.2091    -135.614
   87200     81.2091    -135.614
   87300     81.2091    -135.614
   87400     81.2091    -135.614
   87500      81.204     -132.99
   87600      81.204     -132.99
   87700      81.204     -132.99
   87800     81.2071    -134.612
   87900     81.2157     -130.95
   88000     81.2157     -130.95
   88100     81.2157     -130.95
   88200     81.2157     -130.95
   88300     81.2157     -130.95
   88400     81.2157     -130.95
   88500     81.2157     -130.95
   88600     81.2157     -130.95
   88700     81.2157     -130.95
   88800     81.2157     -130.95
   88900     81.2157     -130.95
   89000     81.2157     -130.95
   89100     81.2157     -130.95
   89200     81.2157     -130.95
   89300     81.2157     -130.95
   89400     81.2157     -130.95
   89500     81.2157     -130.95
   89600     81.2157     -130.95
   89700     81.2157     -130.95
   89800     81.8755    -131.479
   89900      81.216    -128.354
   90000      81.216    -128.354
   90100      81.216    -128.354
   90200     81.2177    -125.477
   90300     81.2177    -125.477
   90400     81.2177    -125.477
   90500     81.2177    -125.477
   90600     81.2177    -125.477
   90700     81.2177    -125.477
   90800     81.2177    -125.477