       0           0         100    -13.5004           0     316.215     316.215              0              0              0
     500           1      99.993     64.1621     -1105.3     316.193    -789.109              0              0              0
    1000           2     99.9691     74.4831    -1097.97     316.117    -781.854              0              0              0
    1500           3     100.049     49.5409    -1123.06     316.369    -806.692              0              0              0
    2000           4     100.211     56.8767    -1113.06     316.883    -796.179              0              0              0
    2500           5      99.941     69.1387    -1100.01     316.028    -783.982              0              0              0
    3000           6     99.7996     71.6559    -1100.27     315.581    -784.688              0              0              0
    3500           7     99.8752     75.0158     -1093.5      315.82    -777.685              0              0              0
    4000           8       100.2     46.0665    -1123.55     316.848    -806.706              0              0              0
    4500           9     99.7386     72.9012    -1095.57     315.388    -780.182              0              0              0
    5000          10     99.8433     66.2154     -1101.5      315.72    -785.776              0              0              0
    5500          11     99.9439     57.2257    -1116.51     316.038    -800.474              0              0              0
    6000          12     99.9338     70.4475    -1103.34     316.006    -787.336              0              0              0
    6500          13     100.085     75.7454    -1088.42     316.484    -771.932              0              0              0
    7000          14     99.9941     60.5467    -1111.86     316.196    -795.661              0              0              0
    7500          15     99.9873     54.2125    -1118.16     316.175    -801.986              0              0              0
    8000          16     99.9635     57.9062    -1118.04     316.099    -801.945              0              0              0
    8500          17     100.169     67.5874    -1102.07      316.75    -785.324              0              0              0
    9000          18     99.9263     48.2648     -1122.9     315.982    -806.917              0              0              0
    9500          19     100.044     63.0356    -1105.62     316.354    -789.268              0              0              0
   10000          20     100.046     73.2279    -1094.21      316.36    -777.846              0              0              0
   10500          21     99.8979     79.9445     -1088.2     315.892    -772.311              0              0              0
   11000          22     100.002     61.2348    -1106.97     316.222    -790.747              0              0              0
   11500          23     100.133     59.0947    -1108.35     316.636    -791.718              0              0              0
   12000          24     100.045     50.1384    -1122.16     316.357    -805.804              0              0              0
   12500          25     99.6772     90.5154    -1073.67     315.194    -758.477              0              0              0
   13000          26     100.083     69.6657    -1103.15     316.477    -786.669              0              0              0
   13500          27     100.128     65.2894    -1109.14      316.62    -792.524              0              0              0
   14000          28     100.012     82.8965    -1090.37     316.254    -774.114              0              0              0
   14500          29     100.017      66.278    -1105.49      316.27    -789.221              0              0              0
   15000          30     100.014     53.2466    -1123.49     316.259    -807.227              0              0              0
   15500          31     99.9801     66.5471    -1097.56     316.152    -781.408              0              0              0
   16000          32     99.9379     67.7091     -1101.8     316.019    -785.783              0              0              0
   16500          33     100.063     65.6372    -1111.38     316.415    -794.963              0              0              0
   17000          34      99.885      61.569    -1101.57     315.851    -785.719              0              0              0
   17500          35     100.038     68.8945    -1098.81     316.334    -782.473              0              0              0
   18000          36     100.033     69.6838    -1101.74     316.319    -785.417              0              0              0
   18500          37     99.8381     66.6031     -1103.9     315.703    -788.202              0              0              0
   19000          38     99.7918     70.0699    -1097.43     315.557    -781.876              0              0              0
   19500          39     99.9695     58.2607    -1110.88     316.119    -794.758              0              0              0
   20000          40     99.8423     57.2614    -1111.57     315.716    -795.852              0              0              0
   20500          41     100.012     59.8394    -1103.69     316.253    -787.434              0              0              0
   21000          42     99.7566     58.4963    -1106.72     315.445    -791.278              0              0              0
   21500          43     99.9484     65.4016    -1098.94     316.052    -782.888              0              0              0
   22000          44      100.02     52.9408     -1115.8     316.278    -799.523              0              0              0
   22500          45       100.4     65.3105    -1101.57      317.48    -784.087              0              0              0
   23000          46     100.144     62.1415    -1105.36     316.669    -788.686              0              0              0
   23500          47     99.9127     61.3251     -1109.7     315.939    -793.763              0              0              0
   24000          48     99.9849     56.6078    -1117.06     316.167    -800.892              0              0              0
   24500          49     99.8387     64.9609    -1108.95     315.705    -793.241              0              0              0
   25000          50     100.049     54.7431    -1118.11     316.371    -801.738              0              0              0
   25500          51     99.8811     58.5463    -1114.65     315.839    -798.809              0              0              0
   26000          52     100.101     85.9515    -1079.18     316.536    -762.643              0              0              0
   26500          53     99.8457     76.5111    -1087.02     315.727    -771.297              0              0              0
   27000          54     99.8279     89.7927    -1070.64     315.671    -754.967              0              0              0
   27500          55     99.9892     55.3933    -1120.11     316.181    -803.933              0              0              0
   28000          56     100.039     59.9732    -1109.78     316.339    -793.437              0              0              0
   28500          57     100.042     64.6581    -1102.54     316.348    -786.191              0              0              0
   29000          58      99.986     84.2556    -1086.05     316.171    -769.879              0              0              0
   29500          59     100.045     52.1796    -1119.09     316.358    -802.735              0              0              0
   30000          60     100.258     72.9489    -1094.38     317.031    -777.347              0              0              0
   30500          61     99.7617     73.9738    -1089.68     315.461    -774.216              0              0              0
   31000          62     100.018     56.0073    -1113.58     316.271    -797.305              0              0              0
   31500          63     100.004     50.1248    -1120.12     316.227    -803.896              0              0              0
   32000          64     100.208     88.9976    -1076.45     316.872    -759.575              0              0              0
   32500          65     100.254     74.3033    -1090.04     317.018    -773.017              0              0              0
   33000          66     100.138     74.8432    -1098.51      316.65     -781.86              0              0              0
   33500          67     100.146     70.7567    -1108.38     316.678    -791.704              0              0              0
   34000          68     100.234     46.2667    -1123.99     316.955    -807.033              0              0              0
   34500          69     100.081      74.392    -1099.48     316.472    -783.005              0              0              0
   35000          70     100.194     55.0531     -1119.3      316.83    -802.468              0              0              0
   35500          71     100.081     63.3003    -1102.24      316.47    -785.772              0              0              0
   36000          72     100.157     80.0467    -1086.35     316.712    -769.643              0              0              0
   36500          73     100.042     80.8582     -1087.1     316.348     -770.75              0              0              0
   37000          74     100.247     43.8152    -1127.51     316.997    -810.508              0              0              0
   37500          75     99.8562     60.8665    -1112.05      315.76     -796.29              0              0              0
   38000          76     100.204      69.932    -1100.81      316.86     -783.95              0              0              0
   38500          77     99.9519     69.0228    -1102.37     316.063    -786.308              0              0              0
   39000          78     99.8373     57.2066    -1116.64       315.7    -800.935              0              0              0
   39500          79     100.018     80.3226    -1088.78     316.271    -772.508              0              0              0
   40000          80       99.79     83.0595    -1079.68     315.551    -764.134              0              0              0
   40500          81     100.069     51.8051    -1119.63     316.435    -803.193              0              0              0
   41000          82     99.9926     54.2539    -1124.23     316.192    -808.043              0              0              0
   41500          83      100.12     57.6387    -1108.04     316.594    -791.449              0              0              0
   42000          84     100.377     64.9191    -1107.11     317.407    -789.703              0              0              0
   42500          85     99.9038     70.7662    -1088.48     315.911    -772.567              0              0              0
   43000          86     99.8272     54.5832    -1119.24     315.669    -803.576              0              0              0
   43500          87     99.8947     67.1836    -1100.93     315.882    -785.051              0              0              0
   44000          88     100.054      69.735    -1105.28     316.385    -788.897              0              0              0
   44500          89     100.123     56.5869    -1118.14     316.605    -801.532              0              0              0
   45000          90     100.064     61.5743    -1104.16     316.417    -787.741              0              0              0
   45500          91     99.9042     68.3915    -1105.28     315.912    -789.367              0              0              0
   46000          92     99.8799     56.8114    -1115.93     315.835    -800.095              0              0              0
   46500          93     99.9311     58.4317    -1117.17     315.997    -801.169              0              0              0
   47000          94     99.8565     75.4943    -1090.93     315.761    -775.174              0              0              0
   47500          95     99.9269     51.1607     -1119.3     315.984     -803.32              0              0              0
   48000          96     99.8907     63.7807    -1101.22     315.869    -785.355              0              0              0
   48500          97     100.014     60.9505    -1106.06      316.26    -789.805              0              0              0
   49000          98     99.9811     86.4017    -1080.99     316.155    -764.839              0              0              0
   49500          99     100.144     56.4865    -1122.77     316.671    -806.097              0              0              0
   50000         100     99.9269     67.5271    -1102.22     315.984    -786.234              0              0              0
   50500         101     100.148     69.0081    -1103.47     316.682    -786.785              0              0              0
   51000         102     100.132      57.713     -1108.5     316.631    -791.871              0              0              0
   51500         103     99.9909     77.7363    -1086.16     316.186    -769.969              0              0              0
   52000         104     99.9753     70.0509    -1094.07     316.137    -777.938              0              0              0
   52500         105     100.152     70.1738    -1097.66     316.697    -780.966              0              0              0
   53000         106     100.133      62.684    -1105.09     316.636    -788.451              0              0              0
   53500         107     99.9285     67.5283    -1105.37     315.989     -789.38              0              0              0
   54000         108     99.9106     71.5018    -1097.34     315.932    -781.409              0              0              0
   54500         109     99.7777     74.2855    -1092.29     315.512    -776.775              0              0              0
   55000         110     99.5369     63.8601     -1109.3     314.751    -794.549              0              0              0
   55500         111     99.9181     61.1101    -1115.82     315.956     -799.86              0              0              0
   56000         112     100.309     71.5787    -1098.03     317.193    -780.838              0              0              0
   56500         113     99.8422     74.9481    -1092.64     315.716    -776.925              0              0              0
   57000         114     100.006     76.1731    -1088.86     316.234    -772.629              0              0              0
   57500         115     99.9703      37.051    -1132.85     316.121    -816.732              0              0              0
   58000         116     99.9696      65.808    -1097.07     316.119     -780.95              0              0              0
   58500         117     99.9184     73.3045    -1090.88     315.957    -774.927              0              0              0
   59000         118     99.8226     70.7069    -1098.02     315.654    -782.367              0              0              0
   59500         119     99.9779     74.0209    -1101.34     316.145    -785.197              0              0              0
   60000         120     100.019     55.2148    -1118.59     316.276     -802.31              0              0              0
   60500         121     99.8535     80.4224    -1087.12     315.752     -771.37              0              0              0
   61000         122      100.13     62.4637    -1109.09     316.626    -792.467              0              0              0
   61500         123     99.6826     70.6564    -1098.87     315.211    -783.659              0              0              0
   62000         124      99.833     74.6902    -1090.34     315.687    -774.657              0              0              0
   62500         125     99.9444     52.0368    -1119.39     316.039     -803.35              0              0              0
   63000         126     99.8704     75.3308    -1085.86     315.805    -770.057              0              0              0
   63500         127     99.9917     71.5592    -1100.34     316.189    -784.156              0              0              0
   64000         128     100.078     45.7089    -1129.54     316.463     -813.08              0              0              0
   64500         129     99.7007     59.8408    -1113.14     315.269    -797.867              0              0              0
   65000         130     99.7987     56.3864    -1114.67     315.578    -799.096              0              0              0
   65500         131     100.243     76.7313    -1090.93     316.983    -773.948              0              0              0
   66000         132     100.092     58.8913    -1111.28     316.506    -794.771              0              0              0
   66500         133     100.276     71.8592    -1100.11     317.086    -783.026              0              0              0
   67000         134     100.208     62.1748    -1108.96     316.873    -792.084              0              0              0
   67500         135     99.9616     68.4936    -1103.88     316.093    -787.791              0              0              0
   68000         136      99.945     68.9744    -1106.99     316.041    -790.946              0              0              0
   68500         137      99.702     75.4425    -1093.99     315.273    -778.719              0              0              0
   69000         138      99.874     60.3643    -1108.79     315.816    -792.978              0              0              0
   69500         139     99.7961     82.4016     -1080.9      315.57     -765.33              0              0              0
   70000         140     99.8103     60.0107    -1111.96     315.615    -796.342              0              0              0
   70500         141     100.062     52.1365    -1115.35     316.412    -798.937              0              0              0
   71000         142     99.8527     81.2962    -1090.75     315.749        -775              0              0              0
   71500         143     99.7261     50.3585    -1126.25     315.349      -810.9              0              0              0
   72000         144     100.303     61.5765    -1111.55     317.172    -794.375              0              0              0
   72500         145     100.124     72.9092    -1096.58     316.607    -779.969              0              0              0
   73000         146     100.047     63.7455    -1101.93     316.364    -785.564              0              0              0
   73500         147     100.129     92.1588    -1072.74     316.622    -756.114              0              0              0
   74000         148     99.9583     52.4914    -1118.45     316.083    -802.365              0              0              0
   74500         149     99.7378     78.0671    -1088.85     315.386    -773.462              0              0              0
   75000         150     100.009     55.3141    -1109.78     316.244    -793.541              0              0              0
   75500         151     99.9685     66.2401    -1102.96     316.115    -786.848              0              0              0
   76000         152      100.07     69.5864    -1097.81     316.438    -781.376              0              0              0
   76500         153     99.7647     72.8561    -1091.56     315.471    -776.093              0              0              0
   77000         154     99.9208     61.1941    -1105.08     315.965    -789.119              0              0              0
   77500         155     99.9376     49.5139    -1129.05     316.018    -813.029              0              0              0
   78000         156     99.9421     75.8036    -1097.19     316.032    -781.157              0              0              0
   78500         157     99.9298     56.7533    -1118.34     315.993    -802.344              0              0              0
   79000         158     99.9036     40.4664    -1127.27      315.91    -811.355              0              0              0
   79500         159     100.528     75.2227    -1093.83     317.884     -775.95              0              0              0
   80000         160     99.8126     70.0609    -1099.23     315.622     -783.61              0              0              0
   80500         161     99.9763     60.7086    -1109.52      316.14    -793.381              0              0              0
   81000         162     99.9861     63.2839    -1104.47     316.171    -788.301              0              0              0
   81500         163     99.9315     75.4787     -1091.5     315.998    -775.501              0              0              0
   82000         164     100.171      60.472     -1107.8     316.755     -791.05              0              0              0
   82500         165     100.161     68.4455    -1096.76     316.723    -780.037              0              0              0
   83000         166     100.067     60.9332    -1108.37     316.428    -791.939              0              0              0
   83500         167     100.088     64.0253    -1099.78     316.493    -783.284              0              0              0
   84000         168     99.9299     73.0728    -1096.61     315.993    -780.615              0              0              0
   84500         169     99.8034     76.2817    -1093.37     315.593    -777.779              0              0              0
   85000         170      100.04     64.3475    -1105.77     316.342    -789.424              0              0              0
   85500         171     100.066     50.2271    -1123.57     316.424    -807.146              0              0              0
   86000         172     99.9667     85.4121    -1074.46      316.11    -758.349              0              0              0
   86500         173     99.9726     56.8053    -1114.93     316.128    -798.801              0              0              0
   87000         174     99.9067     69.8268    -1098.17      315.92    -782.245              0              0              0
   87500         175     100.009     54.5388    -1119.11     316.243     -802.87              0              0              0
   88000         176     100.297     67.2416    -1099.49     317.154    -782.336              0              0              0
   88500         177     99.7856       55.45     -1110.9     315.537    -795.359              0              0              0
   89000         178     99.9985     77.8973    -1078.86      316.21    -762.648              0              0              0
   89500         179     99.9116     70.8776    -1095.39     315.936    -779.458              0              0              0
   90000         180     99.8212     78.0073    -1087.76      315.65    -772.107              0              0              0
   90500         181     99.7491     58.5455    -1109.58     315.422    -794.154              0              0              0
   91000         182     99.9551     64.4601    -1104.16     316.073    -788.088              0              0              0
   91500         183     100.057     72.4872    -1102.76     316.394    -786.363              0              0              0
   92000         184     100.028     65.4184    -1106.25     316.304    -789.943              0              0              0
   92500         185     99.9291     64.4505    -1101.28     315.991    -785.292              0              0              0
   93000         186     99.8947     51.7753    -1113.87     315.882    -797.985              0              0              0
   93500         187     100.085     71.4791    -1097.33     316.484    -780.844              0              0              0
   94000         188     100.029     58.2492    -1119.49     316.305    -803.186              0              0              0
   94500         189     100.038      76.066    -1086.56     316.336    -770.223              0              0              0
   95000         190     100.012     84.8009     -1085.1     316.253    -768.847              0              0              0
   95500         191     99.8959     52.8695    -1114.35     315.886    -798.467              0              0              0
   96000         192      100.08     49.8506    -1119.69     316.469    -803.225              0              0              0
   96500         193     100.033     45.1689    -1128.79      316.32    -812.468              0              0              0
   97000         194     100.035     59.1075    -1115.29     316.325    -798.967              0              0              0
   97500         195     99.9836     66.6873    -1104.95     316.163    -788.785              0              0              0
   98000         196     100.146     72.3071    -1095.27     316.675    -778.594              0              0              0
   98500         197     99.9716     59.8133     -1115.2     316.125    -799.077              0              0              0
   99000         198     100.046     77.2815    -1085.47     316.361    -769.107              0              0              0
   99500         199     100.108     62.0668    -1114.51     316.555    -797.951              0              0              0
  100000         200     100.218     81.3305    -1099.76     316.905    -782.855              0              0              0
  100500         201     99.9059     84.4163    -1078.36     315.917    -762.444              0              0              0
  101000         202     99.9977     77.6228    -1093.44     316.208    -777.229              0              0              0
  101500         203     99.9059     73.5548     -1088.9     315.917    -772.987              0              0              0
  102000         204     99.7654     61.0658    -1111.89     315.473    -796.413              0              0              0
  102500         205     100.045     78.0985    -1089.96     316.358    -773.602              0              0              0
  103000         206     99.9567     63.3344    -1103.25     316.078     -787.17              0              0              0
  103500         207     99.5926     61.6107    -1113.17     314.927    -798.242              0              0              0
  104000         208     100.059      61.697    -1102.69     316.403    -786.283              0              0              0
  104500         209     99.7828     68.1242     -1097.3     315.528    -781.777              0              0              0
  105000         210     100.145     42.2233    -1137.42     316.672    -820.753              0              0              0
  105500         211     100.121     60.5749    -1107.78     316.599    -791.178              0              0              0
  106000         212     99.8702     83.7754    -1079.03     315.805    -763.226              0              0              0
  106500         213     99.9145     64.2288    -1104.33     315.945    -788.389              0              0              0
  107000         214     100.014     52.8453    -1122.71     316.261    -806.447              0              0              0
  107500         215     99.8132     44.9084    -1126.87     315.624    -811.245              0              0              0
  108000         216     100.015     66.2361    -1105.07     316.262    -788.809              0              0              0
  108500         217     99.9549     82.5869    -1080.16     316.073    -764.086              0              0              0
  109000         218     99.8983     72.0599    -1091.48     315.893    -775.591              0              0              0
  109500         219     100.039     78.5554    -1098.98     316.338    -782.643              0              0              0
  110000         220      100.07     50.2045     -1122.9     316.436    -806.468              0              0              0
  110500         221      99.844     72.7934    -1101.07     315.722    -785.349              0              0              0
  111000         222      99.979     54.3262    -1113.38     316.149    -797.228              0              0              0
  111500         223     99.8073     59.3961    -1111.56     315.606    -795.959              0              0              0
  112000         224     100.076     59.9275    -1118.39     316.456    -801.931              0              0              0
  112500         225       100.1      65.622     -1101.5     316.532    -784.972              0              0              0
  113000         226      99.879     60.5888    -1108.64     315.832    -792.806              0              0              0
  113500         227     99.8818     64.9783    -1096.57     315.841    -780.731              0              0              0
  114000         228     99.7049     64.5919    -1105.03     315.282    -789.746              0              0              0
  114500         229     100.068     77.7172    -1092.96      316.43    -776.526              0              0              0
  115000         230     99.9789     70.9638    -1098.97     316.148    -782.819              0              0              0
  115500         231     99.8759     66.1299    -1099.05     315.823    -783.228              0              0              0
  116000         232      100.07     49.6574    -1116.68     316.437    -800.246              0              0              0
  116500         233        99.8     57.9669    -1115.53     315.583    -799.952              0              0              0
  117000         234     99.9118     67.4245    -1106.95     315.936    -791.012              0              0              0
  117500         235     100.057     77.0318    -1090.43     316.396    -774.037              0              0              0
  118000         236     99.9819     71.8774    -1093.91     316.158    -777.755              0              0              0
  118500         237     99.8414     47.6443    -1123.55     315.713     -807.84              0              0              0