       0     1.24648    -1113.49
     100  9.4433e+08  1.7376e+09
     200 1.82971e+10 3.38499e+10
     300 3.32284e+09 6.14698e+09
     400 1.71627e+11 3.17509e+11
     500 1.65893e+11 3.06792e+11
     600 2.14267e+09 3.95976e+09
     700  1.0842e+11 2.00575e+11
     800 6.19073e+12 1.14531e+13
     900 6.19072e+12  1.1453e+13
    1000 4.30413e+09 7.63107e+09
    1100 4.46109e+12 8.25285e+12
    1200 9.46512e+14 1.75108e+15
    1300 1.09189e+11 2.01548e+11
    1400 1.61769e+09 2.98853e+09
    1500 9.47058e+08 1.75144e+09
    1600 4.25056e+12  7.8635e+12
    1700 4.80722e+12 8.89352e+12
    1800 3.37422e+12 6.24243e+12
    1900 3.37843e+12 6.24876e+12
    2000 3.54539e+12 6.55909e+12
    2100  3.3589e+12 6.21409e+12
    2200  7.0538e+12 1.30498e+13
    2300 1.73393e+10 3.18299e+10
    2400 3.18748e+13 5.89692e+13
    2500 3.80494e+11 7.03925e+11
    2600 2.50981e+13 4.64324e+13
    2700 1.09398e+13  2.0239e+13
    2800 2.03677e+13 3.76808e+13
    2900 2.07994e+13 3.84796e+13
    3000 2.07945e+13 3.84706e+13
    3100 4.96636e+11 9.18793e+11
    3200 5.00915e+11 9.26709e+11
    3300 5.10119e+11 9.43737e+11
    3400 7.20236e+10 1.33244e+11
    3500 4.07419e+08 7.51895e+08
    3600 5.45283e+09 1.00334e+10
    3700 3.00084e+10 5.55141e+10
    3800 2.18529e+12 4.04286e+12
    3900 6.11918e+09 1.13204e+10
    4000 7.21237e+09 1.33428e+10
    4100 1.06783e+10 1.97032e+10
    4200 5.92421e+09 1.09596e+10
    4300 4.51239e+11 8.34807e+11
    4400 7.10986e+10 1.31534e+11
    4500 4.75254e+11 8.79235e+11
    4600 1.54804e+13 2.86393e+13
    4700 4.06728e+11 7.52459e+11
    4800 4.16466e+10 7.34861e+10
    4900 9.80309e+09 1.81357e+10
    5000 1.11297e+10 2.05897e+10
    5100 8.69653e+09 1.60859e+10
    5200 4.14558e+10 7.66937e+10
    5300 1.41853e+13 2.62433e+13
    5400 1.82492e+17 3.37617e+17
    5500 2.26116e+13 4.18322e+13
    5600 2.54785e+10 4.71351e+10
    5700 2.50933e+11 4.64233e+11
    5800 3.44544e+09 5.90622e+09
    5900 2.75599e+08 5.08288e+08
    6000 3.53041e+11 6.53136e+11
    6100 3.81822e+11 7.06371e+11
    6200 4.42869e+09 8.19215e+09
    6300 7.04635e+09 1.23966e+10
    6400 2.17567e+11 4.02504e+11
    6500 5.03215e+10 9.30951e+10
    6600 5.16986e+09 9.56284e+09
    6700 9.48876e+10 1.75543e+11
    6800 3.61575e+11 6.68924e+11
    6900 6.03218e+14 1.11597e+15
    7000 2.42795e+13 4.49179e+13
    7100 7.40086e+14 1.36919e+15
    7200 7.21427e+14 1.33466e+15
    7300 1.08686e+12 2.01074e+12
    7400 1.12153e+10 2.07482e+10
    7500 4.33551e+09 8.01843e+09
    7600 1.94461e+10 3.59684e+10
    7700 1.19434e+09 2.20203e+09
    7800 2.22124e+12 4.10936e+12
    7900 1.66779e+12 3.08547e+12
    8000 1.72484e+12   3.191e+12
    8100  2.4521e+09 4.53555e+09
    8200 4.09205e+12 7.57043e+12
    8300 3.10333e+12 5.74127e+12
    8400 5.56673e+09 1.00945e+10
    8500 5.19435e+09 9.55447e+09
    8600 8.65993e+10 1.60166e+11
    8700 5.10161e+10 9.42276e+10
