       0    -13.5004    -1196.47
     100    -13.5834    -1196.52
     200    -13.8985    -1197.01
     300     -14.222    -1197.25
     400    -14.3746    -1197.53
     500    -14.3746    -1197.53
     600    -13.9149    -1196.42
     700    -13.9459    -1196.47
     800    -14.4491    -1196.77
     900    -14.7687    -1197.16
    1000    -12.4589    -1194.57
    1100    -11.8662    -1194.05
    1200    -12.1884    -1194.45
    1300    -10.3165    -1191.81
    1400    -9.59025    -1189.91
    1500     -8.1828    -1187.74
    1600    -9.61718    -1189.61
    1700    -11.9681    -1190.75
    1800    -12.4491    -1191.61
    1900    -11.3459    -1190.55
    2000     -12.161    -1191.96
    2100    -11.8952    -1191.88
    2200    -8.22375    -1188.68
    2300    -8.38518    -1188.48
    2400    -7.94392    -1188.28
    2500    -10.8804    -1190.66
    2600    -10.8804    -1190.66
    2700     -9.1622    -1187.48
    2800    -8.22747    -1186.24
    2900    -8.22747    -1186.24
    3000    -8.16143    -1186.42
    3100    -8.16143    -1186.42
    3200    -4.67678       -1181
    3300    -4.67891       -1181
    3400    -4.77633    -1181.09
    3500    -3.21992    -1179.25
    3600     -3.2374    -1179.78
    3700     -3.2374    -1179.78
    3800    -2.81286    -1178.94
    3900    -3.15682    -1178.94
    4000    -3.12014    -1179.19
    4100   -0.735135    -1176.04
    4200     2.14403    -1173.24
    4300     1.70335    -1173.32
    4400     2.28011    -1172.34
    4500    0.587176    -1174.11
    4600     1.33407    -1172.81
    4700     1.73818    -1172.45
    4800     1.71763    -1172.53
    4900     1.71763    -1172.53
    5000     2.96649    -1170.93
    5100       3.297    -1170.44
    5200       3.297    -1170.44
    5300     3.73959    -1170.56
    5400     4.12279    -1170.26
    5500     3.83799    -1170.64
    5600     4.42999    -1170.36
    5700     3.99638    -1170.34
    5800      4.7898    -1170.24
    5900     5.28987    -1169.64
    6000      5.9389    -1169.47
    6100     6.07281    -1169.47
    6200     5.58056     -1170.3
    6300    0.616399    -1177.09
    6400     1.89973     -1175.8
    6500     4.03463    -1174.15
    6600     4.03463    -1174.15
    6700     4.23818    -1174.45
    6800     3.90546    -1174.57
    6900      3.5031    -1174.96
    7000     2.97754    -1175.58
    7100      2.8563    -1175.77
    7200     2.16587    -1177.93
    7300     3.19683    -1176.41
    7400     2.65343    -1176.73
    7500     2.71893    -1177.54
    7600     2.70561    -1177.63
    7700     2.83091    -1177.49
    7800     5.11469    -1174.77
    7900     4.22913    -1175.61
    8000     3.94393    -1176.32
    8100     2.88246    -1177.45
    8200     3.07951    -1177.36
    8300     4.29201    -1176.77
    8400     4.79565    -1176.59
    8500     5.33741    -1176.07
    8600     7.33746    -1173.94
    8700     7.61073    -1173.06
    8800     8.68776    -1171.99
    8900     8.46625    -1172.45
    9000     7.09821    -1173.77
    9100     8.44549    -1171.48
    9200     9.41861    -1170.18
    9300     8.81775    -1170.79
    9400      10.319    -1168.62
    9500     10.8596    -1169.67
    9600     14.6122    -1166.07
    9700     15.0551    -1165.79
    9800     15.2514    -1165.57
    9900     14.8396    -1165.15
   10000     15.0224    -1165.12
   10100     15.1903    -1164.88
   10200     15.5501    -1164.72
   10300     14.7725    -1165.44
   10400     14.7725    -1165.44
   10500     16.0956    -1163.28
   10600     17.5921    -1161.04
   10700     19.0137    -1158.45
   10800     19.0137    -1158.45
   10900     19.0137    -1158.45
   11000     20.5026     -1157.6
   11100     21.2962    -1157.24
   11200     19.8115    -1159.42
   11300     21.9086    -1157.19
   11400     21.1988    -1158.03
   11500     20.7047    -1157.74
   11600     21.5257    -1156.27
   11700      21.493    -1156.73
   11800     16.2852    -1161.98
   11900     18.0882     -1160.1
   12000     18.3905    -1160.05
   12100     14.9084    -1162.61
   12200       14.29    -1163.48
   12300     12.9124    -1164.57
   12400     11.4021    -1165.08
   12500     9.51859    -1168.11
   12600     10.1218    -1167.25
   12700     11.2765    -1165.73
   12800     16.6722    -1159.61
   12900     17.9784    -1158.45
   13000     16.5252    -1159.36
   13100     16.8093    -1158.89
   13200     18.0213     -1157.2
   13300     16.1073    -1159.07
   13400     16.5261    -1158.33
   13500     16.3659    -1158.36
   13600     15.8693    -1159.01
   13700     16.2333    -1158.98
   13800     16.2644    -1158.45
   13900     16.2644    -1158.45
   14000     14.7188    -1160.61
   14100     16.0699    -1158.46
   14200     17.9507    -1156.02
   14300     18.1642    -1155.99
   14400     20.3004    -1153.54
   14500     21.5479    -1152.13
   14600     20.0468    -1153.74
   14700     20.3007    -1153.52
   14800      21.444     -1152.9
   14900     23.9482    -1149.98
   15000     23.9763    -1150.51
   15100      23.651    -1150.39
   15200     24.8718    -1148.86
   15300     27.9214     -1145.7
   15400     28.7095    -1145.02
   15500     28.8616    -1144.87
   15600     28.8616    -1144.87
   15700     29.4556    -1144.47
   15800      29.523    -1144.46
   15900     29.3811    -1145.18
   16000     28.7052    -1145.83
   16100     29.9096     -1144.2
   16200      28.229    -1144.99
   16300      28.229    -1144.99
   16400     26.8172    -1146.29
   16500     26.7845    -1145.77
   16600     27.6746    -1145.34
   16700     29.7014    -1143.02
   16800     28.5789    -1142.62
   16900     29.1618    -1141.69
   17000     33.4566    -1136.98
   17100     35.2209    -1135.69
   17200     33.4833    -1137.72
   17300     32.6086    -1139.11
   17400     35.8074    -1135.24
   17500     34.6327    -1136.99
   17600     35.9386    -1135.32
   17700     34.5432     -1137.7
   17800     36.5655    -1136.59
   17900     36.2507    -1137.36
   18000     36.5984    -1135.85
   18100     35.0832    -1138.19
   18200     36.6958    -1136.03
   18300     36.2389    -1136.41
   18400     39.1126    -1133.78
   18500     39.1126    -1133.78
   18600     39.5298    -1133.24
   18700     41.5483    -1129.97
   18800     41.9901    -1129.24
   18900     41.9901    -1129.24
   19000     41.1626    -1129.65
   19100     43.5757    -1127.69
   19200     42.8946    -1128.56
   19300     42.5098    -1128.96
   19400     41.4771    -1131.76
   19500     41.3032    -1132.38
   19600      40.276    -1130.67
   19700     43.5147    -1126.74
   19800     42.3154     -1127.9
   19900     40.6146    -1129.72
   20000     40.6146    -1129.72
   20100     40.6989    -1129.29
   20200     40.5554    -1129.35
   20300     41.1203    -1128.63
   20400     41.4951    -1128.66
   20500     41.1109    -1129.63
   20600     41.7404    -1128.82
   20700     40.2736    -1131.56
   20800     39.5904    -1132.08
   20900      39.352    -1132.95
   21000     37.9881    -1133.78
   21100     38.2812    -1133.53
   21200     38.5899     -1133.3
   21300     37.2317    -1134.12
   21400     41.1849    -1129.58
   21500     45.6882    -1124.86
   21600     45.6882    -1124.86
   21700     42.1334    -1129.04
   21800     42.1334    -1129.04
   21900      42.681    -1128.52
   22000     43.7248    -1129.07
   22100     42.2657    -1131.22
   22200     42.8967    -1130.68
   22300     42.0831    -1130.51
   22400     41.3442    -1130.79
   22500     40.7514    -1131.67
   22600     37.8091    -1134.32
   22700     38.2426    -1134.22
   22800     40.5998    -1132.18
   22900     38.8726    -1133.82
   23000     39.6176    -1131.85
   23100     39.3392    -1132.08
   23200     39.3392    -1132.08
   23300     40.8589    -1130.83
   23400     38.9037    -1133.07
   23500     38.9966       -1134
   23600     40.7844    -1131.38
   23700     39.9157    -1132.14
   23800     39.4729    -1132.71
   23900     39.0483    -1131.37
   24000     37.6334    -1133.59
   24100     37.6334    -1133.59
   24200     35.6791    -1135.25
   24300     35.8335    -1135.78
   24400     34.1521    -1136.98
   24500     34.3183    -1137.66
   24600     32.7379    -1139.01
   24700     33.8614    -1138.35
   24800     33.3666    -1140.08
   24900     33.3666    -1140.08
   25000     32.9825    -1139.64
   25100     34.3875    -1137.81
   25200     35.9047    -1135.49
   25300     36.3669    -1134.71
   25400     36.1031    -1134.73
   25500      36.144    -1133.89
   25600      36.144    -1133.89
   25700      36.454    -1133.28
   25800     37.7386    -1133.32
   25900     37.7386    -1133.32
   26000     38.0118    -1133.13
   26100     36.8055    -1134.98
   26200     36.5316    -1135.72
   26300     36.9314    -1135.35
   26400     36.0019     -1135.3
   26500      38.196    -1132.97
   26600     37.5029    -1133.87
   26700     37.1724    -1134.23
   26800     38.7061    -1133.01
   26900     36.1257    -1136.19
   27000     37.9185    -1133.55
   27100     39.0091    -1133.18
   27200     36.9675    -1134.78
   27300     36.9675    -1134.78
   27400     36.4205    -1135.57
   27500     36.3823    -1135.08
   27600     34.9138    -1137.18
   27700      37.824    -1134.17
   27800     38.2734    -1134.37
   27900     38.0064    -1134.06
   28000     37.8336    -1134.68
   28100     36.7341     -1135.7
   28200     36.7695    -1135.93
   28300     36.7695    -1135.93
   28400     37.5393    -1135.39
   28500      37.427    -1135.07
   28600     36.5134    -1135.96
   28700     36.1543    -1135.67
   28800     36.0328    -1135.97
   28900     36.4505    -1135.52
   29000     36.6599    -1135.26
   29100     36.5366    -1135.24
   29200     36.5366    -1135.24
   29300     34.2864    -1135.46
   29400     34.0892    -1136.39
   29500     34.5049    -1135.97
   29600     34.5049    -1135.97
   29700     33.4362    -1137.15
   29800     34.3173     -1136.4
   29900     35.0776     -1134.8
   30000     33.0681    -1137.55
   30100     33.5442    -1136.65
   30200     33.5442    -1136.65
   30300      33.258    -1137.34
   30400     30.8464    -1140.24
   30500     30.8464    -1140.24
   30600     32.2974    -1139.02
   30700     33.4272    -1138.29
   30800      33.153    -1138.78
   30900     33.1528    -1138.68
   31000     34.0493    -1137.28
   31100     32.0682    -1138.34
   31200     34.9242    -1135.91
   31300     36.1695     -1134.8
   31400     37.5075    -1134.01
   31500     37.1619    -1134.15
   31600      37.084    -1133.95
   31700      39.389    -1131.27
   31800     38.6888    -1132.56
   31900     38.4623    -1131.94
   32000     38.3715    -1132.24
   32100     38.0176    -1131.82
   32200     38.7667    -1130.07
   32300     45.1794    -1121.58
   32400     46.3632    -1121.22
   32500     46.3632    -1121.22
   32600     45.5784    -1121.67
   32700     44.8404    -1122.46
   32800     47.9289    -1118.02
   32900     47.5515    -1118.64
   33000     47.5515    -1118.64
   33100     46.6684    -1118.84
   33200     46.6666    -1118.61
   33300     45.5705    -1119.57
   33400      47.332    -1117.35
   33500     46.7985     -1117.9
   33600     46.2081    -1118.92
   33700     46.5978    -1118.08
   33800     45.7763    -1119.44
   33900     45.0086       -1120
   34000     44.1576    -1121.24
   34100      44.656    -1119.55
   34200     44.4425    -1121.11
   34300     45.4962    -1120.39
   34400     45.4962    -1120.39
   34500     43.4897       -1122
   34600     45.3977    -1120.77
   34700     44.0848    -1122.07
   34800     44.0848    -1122.07
   34900       45.85    -1120.42
   35000     44.4935    -1121.72
   35100     48.9831    -1119.23
   35200     44.8516    -1123.12
   35300     44.8516    -1123.12
   35400     43.7168    -1125.11
   35500     43.1115    -1126.49
   35600     45.2205    -1124.25
   35700     44.3776    -1125.27
   35800     41.1742    -1129.32
   35900     42.7015    -1126.65
   36000     42.9493     -1126.5
   36100     42.0793    -1126.88
   36200     42.1468    -1126.87
   36300     42.1468    -1126.87
   36400     42.9699    -1126.06
   36500     41.4467    -1127.46
   36600     43.3718    -1125.04
   36700     45.2726    -1122.52
   36800     46.4559    -1121.54
   36900     50.0106    -1117.62
   37000     50.2605    -1116.91
   37100     49.4164    -1117.02
   37200     48.8285    -1118.44
   37300     50.0564    -1117.87
   37400     47.0964     -1122.1
   37500     47.0964     -1122.1
   37600     47.3358    -1121.58
   37700     48.0709    -1121.43
   37800     41.3258    -1128.53
   37900     42.9722    -1126.27
   38000     43.2769    -1125.54
   38100     42.9429    -1126.22
   38200     43.3609    -1125.68
   38300     43.3609    -1125.68
   38400     40.7948    -1128.01
   38500     40.9511    -1127.46
   38600     39.6647    -1129.38
   38700     39.6647    -1129.38
   38800     38.7284    -1130.84
   38900     39.1929     -1130.7
   39000     38.7947    -1131.22
   39100     37.8396    -1132.37
   39200       38.66    -1131.31
   39300     39.2576    -1130.25
   39400     38.2701    -1131.49
   39500     37.0306    -1133.17
   39600       36.81    -1133.35
   39700     37.9178    -1132.84
   39800     38.2116    -1134.11
   39900     38.2116    -1134.11
   40000     37.9321    -1134.24
   40100     39.0379     -1131.8
   40200     38.5985    -1132.41
   40300     39.0949    -1132.23
   40400     40.1851    -1130.71
   40500     38.1845     -1132.9
   40600      39.212    -1130.36
   40700      37.014    -1132.98
   40800     36.9746    -1133.32
   40900     38.0511    -1132.37
   41000     39.1554    -1131.12
   41100     39.7544    -1130.23
   41200     40.1126     -1129.8
   41300     37.4997    -1132.82
   41400     38.8147    -1131.58
   41500     39.2782    -1131.67
   41600     39.6654    -1130.61
   41700     37.8872    -1132.56
   41800     38.2842    -1132.82
   41900     37.8666    -1134.17
   42000     34.5025    -1138.05
   42100     32.4777    -1140.24
   42200     33.2462    -1139.66
   42300     32.7884    -1140.26
   42400     36.2573    -1135.64
   42500     33.9251    -1138.27
   42600     33.6861    -1138.38
   42700     33.4352    -1138.48
   42800     32.8483    -1138.24
   42900     32.4921    -1138.37
   43000     33.0045    -1137.82
   43100     33.9978    -1137.01
   43200       29.87    -1141.26
   43300     26.3426    -1144.77
   43400     26.3426    -1144.77
   43500     27.7845     -1142.8
   43600     26.1564    -1145.55
   43700     26.1564    -1145.55
   43800     25.8363    -1146.54
   43900     23.9728    -1149.16
   44000     22.3056    -1150.86
   44100     22.3056    -1150.86
   44200     22.3056    -1150.86
   44300     22.3056    -1150.86
   44400     19.5656    -1153.09
   44500     19.6963    -1153.02
   44600     20.5855    -1152.02
   44700     19.0235    -1153.05
   44800      20.325    -1152.68
   44900     21.2995     -1151.8
   45000     21.8781    -1151.01
   45100     22.0643    -1150.32
   45200     22.4843    -1148.86
   45300     20.8601    -1150.01
   45400     22.0141    -1148.26
   45500     20.8637    -1149.66
   45600     21.2144    -1149.71
   45700      21.828    -1149.37
   45800     23.3447    -1147.63
   45900      21.891    -1149.57
   46000     22.8553    -1148.53
   46100     21.9777    -1148.79
   46200     26.0186    -1142.94
   46300     25.4828     -1143.8
   46400     26.3158    -1142.82
   46500     26.3158    -1142.82
   46600     26.3158    -1142.82
   46700     24.6445    -1145.02
   46800     27.4319     -1141.1
   46900     27.0782     -1142.7
   47000     29.2695    -1139.55
   47100     29.9985    -1139.32
   47200     28.9547    -1139.89
   47300     29.4003    -1141.13
   47400     33.3737     -1137.9
   47500     33.9636    -1137.34
   47600     34.0275    -1137.65
   47700     33.8862    -1137.27
   47800     33.6451    -1137.07
   47900     36.3951    -1133.81
   48000     36.4656    -1133.71
   48100     36.3463    -1133.64
   48200     39.0999    -1130.67
   48300     36.2353    -1134.09
   48400     36.2353    -1134.09
   48500     37.1062    -1132.39
   48600     36.0086    -1133.12
   48700     33.4319    -1136.07
   48800     33.4319    -1136.07
   48900     33.4319    -1136.07
   49000     32.6201    -1137.58
   49100     31.7096    -1138.64
   49200     32.1674    -1137.67
   49300     30.0806    -1139.33
   49400     29.2508    -1139.81
   49500     29.2508    -1139.81
   49600     29.8784    -1139.24
   49700     31.9101    -1137.43
   49800     33.1826    -1136.05
   49900     34.9941    -1133.73
   50000     35.7301    -1131.53
   50100      32.521    -1134.57
   50200     31.5856    -1135.29
   50300     30.4675    -1136.37
   50400     32.7014    -1134.44
   50500      31.482    -1135.87
   50600     29.7366    -1137.62
   50700     33.7082     -1134.1
   50800     34.3778    -1132.42
   50900      31.881     -1135.6
   51000     30.2577    -1137.53
   51100     31.0576    -1137.43
   51200     29.6889    -1137.58
   51300     30.5289    -1136.23
   51400     30.8566    -1136.06
   51500     34.7725    -1131.51
   51600     34.3781     -1132.7
   51700     30.1989    -1137.19
   51800     30.8134    -1138.28
   51900     32.3488    -1136.89
   52000     32.7775    -1135.65
   52100     30.9763    -1138.32
   52200      30.161    -1139.13
   52300     33.4995    -1136.46
   52400     32.4299    -1138.29
   52500     32.7504    -1137.98
   52600     32.7504    -1137.98
   52700      32.377    -1138.12
   52800      32.273     -1138.1
   52900      32.273     -1138.1
   53000     32.4648    -1138.15
   53100     35.0748    -1135.94
   53200     34.7901    -1136.23
   53300       35.74     -1135.6
   53400     34.6917    -1137.31
   53500     39.5257    -1130.97
   53600     39.5257    -1130.97
   53700     41.1134    -1128.91
   53800     38.5087    -1132.11
   53900     37.9261    -1132.69
   54000     37.9261    -1132.69
   54100     35.8351    -1134.78
   54200     35.7606    -1135.16
   54300     35.7329    -1135.42
   54400     35.5968    -1135.85
   54500     35.6474    -1135.79
   54600     36.3395     -1134.6
   54700     39.9249    -1130.96
   54800      40.867    -1130.12
   54900     40.6574    -1129.92
   55000     39.4821     -1132.3
   55100     37.2619    -1134.01
   55200     38.7614    -1132.52
   55300     39.7941    -1132.07
   55400     39.2625    -1132.55
   55500     39.2485    -1133.13
   55600     38.8063    -1133.22
   55700     34.3432    -1138.29
   55800     34.3105    -1138.34
   55900     34.1783    -1137.95
   56000     34.1032       -1137
   56100     31.6699    -1139.39
   56200     33.5462    -1136.87
   56300     34.9828    -1134.06
   56400     34.9529    -1133.92
   56500     34.7194    -1134.16
   56600     36.4009    -1134.32
   56700     33.6578    -1136.94
   56800      31.856    -1139.36
   56900     32.3041    -1138.83
   57000     33.9793    -1136.72
   57100     32.3767    -1136.65
   57200     34.3996    -1134.74
   57300     33.7466    -1135.91
   57400     34.1556    -1135.46
   57500     35.3208    -1134.36
   57600     35.5523    -1133.89
   57700     36.1281    -1132.78
   57800     36.0113     -1132.9
   57900     36.5968    -1131.92
   58000     35.7532    -1133.22
   58100     35.9331    -1132.98
   58200     35.4562    -1133.78
   58300     36.2891    -1133.41
   58400     36.1108    -1133.16
   58500     34.8465    -1133.66
   58600     34.9077    -1133.04
   58700     35.1315    -1132.98
   58800     35.1315    -1132.98
   58900     34.7422    -1133.47
   59000     35.3045    -1132.87
   59100     35.1626    -1132.09
   59200     35.1626    -1132.09
   59300     35.3303    -1132.28
   59400     37.6918    -1130.11
   59500     36.3267     -1131.8
   59600     37.6148    -1130.87
   59700     37.9675     -1131.2
   59800      37.962    -1132.07
   59900     40.4534    -1129.35
   60000     42.7979    -1126.37
   60100     42.9021    -1126.18
   60200     43.5011    -1125.09
   60300     44.4602     -1124.8
   60400     41.5673    -1127.75
   60500     44.4951    -1124.12
   60600     45.3523    -1123.08
   60700     44.7373    -1123.25
   60800     45.2059     -1123.1
   60900     46.2298    -1121.79
   61000     46.2171       -1122
   61100     46.7622    -1121.26
   61200      48.577    -1119.73
   61300      48.577    -1119.73
   61400      48.577    -1119.73
   61500     49.8986    -1117.63
   61600     50.7185    -1116.36
   61700     50.0988    -1115.73
   61800     49.7222    -1116.31
   61900     47.8849    -1117.05
   62000     48.5318     -1116.9
   62100     49.8681    -1115.43
   62200     49.9178    -1115.98
   62300     50.7141    -1114.84
   62400     51.5043    -1114.15
   62500     53.1441    -1112.18
   62600     53.1441    -1112.18
   62700     52.3286    -1113.69
   62800     52.3286    -1113.69
   62900     53.0625    -1113.41
   63000     52.2967    -1114.31
   63100     52.2967    -1114.31
   63200     51.0053    -1115.91
   63300     51.0053    -1115.91
   63400     53.5636    -1111.98
   63500     53.0793    -1112.59
   63600     53.4319    -1112.37
   63700     53.8039    -1111.94
   63800     55.1975    -1110.82
   63900     52.6523    -1113.56
   64000      53.862    -1111.35
   64100      55.288    -1109.75
   64200     55.1977    -1110.12
   64300     55.3804    -1110.92
   64400     55.3804    -1110.92
   64500     56.9379    -1109.73
   64600     56.0407    -1111.03
   64700     54.1889    -1113.24
   64800     54.8381    -1112.89
   64900     55.8933    -1111.21
   65000     55.8024    -1111.52
   65100      57.696    -1111.01
   65200     56.5396    -1112.08
   65300     59.9755    -1108.85
   65400     59.0801    -1110.02
   65500     55.8709    -1114.92
   65600     53.9231    -1117.42
   65700     53.9784    -1117.61
   65800     52.9111    -1117.79
   65900     52.3326    -1117.77
   66000     52.3326    -1117.77
   66100     51.6583    -1117.99
   66200     53.2842     -1115.3
   66300     54.6754       -1114
   66400     54.7635    -1112.37
   66500     55.7332    -1111.41
   66600     52.8441    -1113.44
   66700     53.9306    -1112.82
   66800     54.1643    -1112.67
   66900     52.8569    -1114.27
   67000     51.1296    -1116.23
   67100     50.5149    -1118.43
   67200     52.9423    -1115.06
   67300     53.0659    -1114.99
   67400     52.9616    -1116.22
   67500     52.5165    -1115.29
   67600     51.5466    -1116.66
   67700     51.5466    -1116.66
   67800     51.1944    -1116.65
   67900     50.0742    -1117.27
   68000     50.0742    -1117.27
   68100     48.8759    -1118.74
   68200     49.3434    -1118.67
   68300      47.969    -1121.25
   68400     48.0137    -1122.37
   68500     48.6112    -1121.96
   68600     49.4227    -1120.77
   68700     49.4227    -1120.77
   68800     49.4033    -1120.45
   68900     50.0415    -1120.04
   69000     47.4728    -1122.46
   69100     51.5112    -1118.78
   69200     51.1726    -1118.59
   69300     50.3174    -1119.13
   69400     50.3174    -1119.13
   69500     51.0591    -1118.26
   69600     50.8926    -1117.64
   69700     50.4213    -1118.73
   69800     49.9432    -1118.92
   69900     51.9383    -1118.03
   70000     51.2723    -1117.11
   70100     53.1396    -1116.54
   70200     52.8822    -1116.82
   70300     53.3538    -1116.37
   70400     53.4907       -1116
   70500     48.5999    -1121.79
   70600     48.5999    -1121.79
   70700     49.1302    -1121.59
   70800     49.0663    -1121.79
   70900     51.0623    -1119.61
   71000     51.5362       -1120
   71100     51.2198    -1120.21
   71200     52.4956    -1119.34
   71300     55.3934    -1116.38
   71400     54.9336    -1116.47
   71500     55.0148    -1115.64
   71600     56.3788    -1114.69
   71700     57.1935    -1114.67
   71800     57.6586    -1112.66
   71900     58.6651     -1112.1
   72000     58.6651     -1112.1
   72100     59.8783    -1112.02
   72200     58.6108    -1112.93
   72300     58.8329    -1113.38
   72400     58.8329    -1113.38
   72500     59.1348    -1112.17
   72600     59.8515    -1112.43
   72700     58.1476    -1113.12
   72800     57.4099    -1114.32
   72900     57.4099    -1114.32
   73000     55.4839    -1116.19
   73100     55.0582    -1116.05
   73200     55.4414    -1115.92
   73300     52.8724     -1118.1
   73400     52.6745    -1118.84
   73500     50.4828    -1120.31
   73600      51.866     -1119.2
   73700     51.0081     -1118.5
   73800     48.7354    -1121.59
   73900     48.7354    -1121.59
   74000     46.8176    -1124.99
   74100     48.6689    -1122.66
   74200      45.587    -1126.62
   74300     43.7027    -1127.68
   74400     43.7027    -1127.68
   74500     43.7027    -1127.68
   74600     43.7027    -1127.68
   74700     43.8745    -1127.97
   74800     44.4014    -1127.18
   74900     45.3094    -1126.59
   75000      45.231    -1127.49
   75100     45.4905     -1127.3
   75200     45.0454    -1127.53
   75300      45.476    -1127.24
   75400      45.476    -1127.24
   75500      45.476    -1127.24
   75600     44.1308    -1127.98
   75700     44.1308    -1127.98
   75800     42.9811    -1128.24
   75900     43.7371     -1127.4
   76000     42.1751     -1129.8
   76100     43.9843    -1126.88
   76200      46.025    -1124.61
   76300     47.5411    -1123.04
   76400     47.7281    -1122.83
   76500     49.1219    -1121.53
   76600     48.0458    -1123.12
   76700     47.5186    -1123.92
   76800     44.8939    -1127.61
   76900     44.8939    -1127.61
   77000     45.9687    -1126.46
   77100     45.2207    -1126.17
   77200     45.0135    -1126.64
   77300      45.751    -1125.82
   77400     47.0371     -1123.2
   77500     44.7315    -1125.73
   77600     46.2709     -1124.8
   77700     46.2709     -1124.8
   77800     47.4289    -1123.33
   77900     49.5853    -1120.24
   78000      50.676    -1119.39
   78100     51.8053    -1117.99
   78200     52.8438    -1116.94
   78300     53.6259    -1116.51
   78400     53.6259    -1116.51
   78500     52.2807    -1117.79
   78600     51.7219     -1118.7
   78700     51.7219     -1118.7
   78800     50.4574    -1119.64
   78900      51.153    -1118.88
   79000     47.5595     -1122.1
   79100     47.5595     -1122.1
   79200     47.5595     -1122.1
   79300     47.4396    -1122.15
   79400     47.3299    -1121.86
   79500     43.6018    -1126.37
   79600     43.6018    -1126.37
   79700     42.9675     -1126.4
   79800     41.7903     -1127.6
   79900     39.9822    -1130.23
   80000     40.1162    -1130.83
   80100     40.7414    -1130.86
   80200     41.5491    -1130.68
   80300     45.1738    -1126.16
   80400     45.1449    -1125.35
   80500      44.488    -1126.44
   80600     43.9698    -1127.21
   80700     43.9698    -1127.21
   80800     43.3024    -1128.04
   80900     44.9265    -1126.72
   81000     44.9577    -1126.63
   81100     45.8853    -1125.86
   81200     46.0926    -1125.45
   81300     45.6122    -1126.48
   81400     45.6913    -1126.72
   81500     45.5932    -1126.39
   81600     45.9427    -1126.11
   81700     44.2787    -1127.59
   81800     46.1402    -1124.76
   81900     47.5601       -1123
   82000     46.5868    -1125.03
   82100     48.2517    -1122.59
   82200     44.6492    -1127.85
   82300     44.9207    -1127.12
   82400     45.2932    -1126.79
   82500     44.5344    -1127.46
   82600     44.9532    -1126.02
   82700     44.6402    -1125.47
   82800      42.188    -1127.35
   82900     44.4985    -1125.04
   83000     45.4909    -1123.86
   83100     44.3712    -1124.41
   83200     44.3753    -1123.68
   83300     44.9125    -1123.59
   83400     43.7278    -1125.05
   83500     44.0122    -1124.89
   83600      45.129    -1123.35
   83700      42.932    -1127.22
   83800     44.5299    -1125.69
   83900     43.1743    -1127.75
   84000     43.9113    -1126.71
   84100     41.8784    -1129.75
   84200     42.1558    -1129.62
   84300     44.6606    -1127.59
   84400     44.6867    -1127.53
   84500     44.9061    -1126.41
   84600     47.8846    -1122.29
   84700     47.9788    -1122.05
   84800     47.9613    -1121.95
   84900     49.3694    -1120.53
   85000     50.2252    -1119.48
   85100     50.5722    -1118.89
   85200     51.6439    -1117.26
   85300     48.6282    -1122.44
   85400     51.1063    -1118.95
   85500      51.271    -1118.73
   85600     51.1786    -1119.06
   85700     47.8889    -1123.31
   85800     46.1087    -1125.88
   85900     45.6076    -1126.23
   86000     50.6679    -1120.56
   86100     52.0923     -1118.6
   86200     52.3632    -1118.92
   86300     53.9313    -1118.02
   86400      54.333    -1118.91
   86500     52.0793    -1120.99
   86600     49.8299    -1124.12
   86700     48.9739     -1124.1
   86800     51.0937     -1119.7
   86900     51.0937     -1119.7
   87000     50.8302    -1119.94
   87100     54.2917    -1115.23
   87200     54.5528    -1114.87
   87300     57.0784    -1112.77
   87400     59.0964    -1111.26
   87500     59.1074     -1112.4
   87600     60.1339    -1110.76
   87700     59.2118    -1111.93
   87800     59.3801    -1111.04
   87900     60.5104    -1110.85
   88000     60.9297       -1110
   88100     59.4749    -1111.22
   88200     59.4749    -1111.22
   88300     58.6205    -1112.07
   88400     57.6137    -1113.38
   88500     58.9131    -1112.31
   88600     58.9131    -1112.31
   88700     58.9131    -1112.31
   88800     59.4145    -1111.39
   88900     60.8893    -1110.58
   89000     60.8596    -1110.56
   89100     59.6162     -1112.1
   89200     60.3006    -1111.59
   89300      60.669    -1111.36
   89400     65.0543    -1105.32
   89500     65.7689    -1104.22
   89600     64.4116    -1105.34
   89700     63.6158    -1106.31
   89800       64.59    -1104.95
   89900     63.6215    -1104.01
   90000     63.7745    -1103.98
   90100     62.9362    -1104.29
   90200     63.4848    -1103.43
   90300     63.4848    -1103.43
   90400     64.7754     -1101.9
   90500     64.7754     -1101.9
   90600     64.1674    -1102.15
   90700      62.947    -1104.06
   90800      64.366    -1103.33