Time step           time             PE             KE             TE             Px             Py             Pz
       0              0              0              0              0              0              0              0
       1          0.002       -15.9584     0.00818648       -15.9502    3.46945e-18    7.91468e-18    7.91468e-18
       2          0.004       -15.9829      0.0326667       -15.9502              0   -1.68051e-17   -1.68051e-17
       3          0.006       -16.0234      0.0732046       -15.9502   -2.08167e-17   -3.43692e-17   -3.43692e-17
       4          0.008       -16.0797       0.129411       -15.9503   -2.08167e-17   -4.38018e-17   -4.38018e-17
       5           0.01       -16.1511       0.200751       -15.9503   -1.38778e-17   -2.73219e-17   -2.73219e-17
       6          0.012       -16.2369       0.286554       -15.9504    1.38778e-17    -8.5652e-17    -8.5652e-17
       7          0.014       -16.3364       0.386024       -15.9504    5.55112e-17   -7.93636e-17   -7.93636e-17
       8          0.016       -16.4487       0.498252       -15.9505    8.32667e-17    9.75782e-19    9.75782e-19
       9          0.018       -16.5728       0.622234       -15.9505    1.11022e-16    8.67362e-17    8.67362e-17
      10           0.02       -16.7075       0.756884       -15.9506    8.32667e-17    1.18991e-16    1.18991e-16
      11          0.022       -16.8517       0.901054       -15.9507    1.38778e-16    1.94506e-16    1.94506e-16
      12          0.024       -17.0043        1.05355       -15.9508    1.11022e-16    3.31766e-16    3.31766e-16
      13          0.026        -17.164        1.21314       -15.9508    5.55112e-17    3.16587e-16    3.16587e-16
      14          0.028       -17.3295        1.37858       -15.9509    2.77556e-17    4.05492e-16    4.05492e-16
      15           0.03       -17.4996        1.54864        -15.951    5.55112e-17    4.52763e-16    4.52763e-16
      16          0.032       -17.6731        1.72209       -15.9511    8.32667e-17    4.87457e-16    4.87457e-16
      17          0.034       -17.8489        1.89773       -15.9511              0    3.50414e-16    3.50414e-16
      18          0.036       -18.0256        2.07442       -15.9512   -2.77556e-17    1.42247e-16    1.42247e-16
      19          0.038       -18.2023        2.25105       -15.9513   -2.77556e-17    1.04083e-16    1.04083e-16
      20           0.04       -18.3779        2.42657       -15.9513              0    2.18575e-16    2.18575e-16
      21          0.042       -18.5514            2.6       -15.9514    1.11022e-16    3.19189e-16    3.19189e-16
      22          0.044       -18.7219        2.77045       -15.9514    1.38778e-16    8.67362e-17    8.67362e-17
      23          0.046       -18.8885        2.93708       -15.9514    5.55112e-17    9.36751e-17    9.36751e-17
      24          0.048       -19.0506        3.09914       -15.9515    1.66533e-16    1.70003e-16    1.70003e-16
      25           0.05       -19.2075        3.25596       -15.9515    1.38778e-16    1.00614e-16    1.00614e-16
      26          0.052       -19.3585        3.40693       -15.9515   -2.77556e-17     3.1572e-16     3.1572e-16
      27          0.054       -19.5031        3.55156       -15.9516   -1.11022e-16    2.84495e-16    2.84495e-16
      28          0.056        -19.641         3.6894       -15.9516   -8.32667e-17    2.56739e-16    2.56739e-16
      29          0.058       -19.7717        3.82009       -15.9516   -5.55112e-17    1.38778e-17    1.38778e-17
      30           0.06       -19.8949        3.94333       -15.9516   -1.11022e-16      2.498e-16      2.498e-16
      31          0.062       -20.0105        4.05889       -15.9516   -1.66533e-16    2.15106e-16    2.15106e-16
      32          0.064       -20.1182        4.16661       -15.9516   -2.77556e-16    1.04083e-16    1.04083e-16
      33          0.066        -20.218        4.26638       -15.9516   -3.33067e-16      2.498e-16      2.498e-16
      34          0.068       -20.3097        4.35815       -15.9516   -3.05311e-16    2.28983e-16    2.28983e-16
      35           0.07       -20.3935        4.44191       -15.9516     -4.996e-16    2.01228e-16    2.01228e-16
      36          0.072       -20.4693         4.5177       -15.9516     -4.996e-16      2.498e-16      2.498e-16
      37          0.074       -20.5371        4.58559       -15.9515   -4.16334e-16    4.02456e-16    4.02456e-16
      38          0.076       -20.5972        4.64571       -15.9515   -3.60822e-16    3.05311e-16    3.05311e-16
      39          0.078       -20.6497        4.69819       -15.9515   -4.16334e-16    3.46945e-16    3.46945e-16
      40           0.08       -20.6947         4.7432       -15.9515   -4.16334e-16    4.16334e-16    4.16334e-16
      41          0.082       -20.7324        4.78094       -15.9515   -4.71845e-16    3.33067e-16    3.33067e-16
      42          0.084       -20.7631        4.81161       -15.9515   -5.27356e-16    2.22045e-16    2.22045e-16
      43          0.086       -20.7869        4.83546       -15.9514   -5.55112e-16     -2.498e-16     -2.498e-16
      44          0.088       -20.8041        4.85271       -15.9514   -6.66134e-16    5.55112e-17    5.55112e-17
      45           0.09        -20.815        4.86362       -15.9514   -4.71845e-16    8.32667e-17    8.32667e-17
      46          0.092       -20.8198        4.86844       -15.9514   -6.10623e-16    2.22045e-16    2.22045e-16
      47          0.094       -20.8188        4.86745       -15.9513   -7.49401e-16    2.63678e-16    2.63678e-16
      48          0.096       -20.8122        4.86091       -15.9513   -8.88178e-16    5.96745e-16    5.96745e-16
      49          0.098       -20.8004        4.84908       -15.9513   -9.99201e-16      4.996e-16      4.996e-16
      50            0.1       -20.7835        4.83224       -15.9513   -1.16573e-15    2.77556e-16    2.77556e-16
      51          0.102       -20.7619        4.81064       -15.9513     -1.249e-15    3.33067e-16    3.33067e-16
      52          0.104       -20.7358        4.78456       -15.9512   -1.26288e-15    3.60822e-16    3.60822e-16
      53          0.106       -20.7055        4.75425       -15.9512     -1.249e-15    5.55112e-16    5.55112e-16
      54          0.108       -20.6712        4.71997       -15.9512   -1.29063e-15    3.88578e-16    3.88578e-16
      55           0.11       -20.6331        4.68197       -15.9512   -1.23512e-15      4.996e-16      4.996e-16
      56          0.112       -20.5916        4.64048       -15.9512   -1.17961e-15    3.88578e-16    3.88578e-16
      57          0.114       -20.5469        4.59574       -15.9511   -1.23512e-15    6.10623e-16    6.10623e-16
      58          0.116       -20.4991        4.54799       -15.9511   -1.30451e-15    2.77556e-16    2.77556e-16
      59          0.118       -20.4486        4.49744       -15.9511   -1.22125e-15    8.32667e-17    8.32667e-17
      60           0.12       -20.3954        4.44431       -15.9511   -1.13798e-15   -2.77556e-17   -2.77556e-17
      61          0.122       -20.3399         4.3888       -15.9511   -1.08247e-15    2.77556e-16    2.77556e-16
      62          0.124       -20.2822        4.33112       -15.9511   -1.08594e-15              0              0
      63          0.126       -20.2225        4.27144       -15.9511   -1.10675e-15      2.498e-16      2.498e-16
      64          0.128        -20.161        4.20997        -15.951   -1.09548e-15   -5.55112e-17   -5.55112e-17
      65           0.13       -20.0979        4.14686        -15.951   -1.13104e-15   -4.44089e-16   -4.44089e-16
      66          0.132       -20.0333        4.08229        -15.951   -1.13971e-15   -5.82867e-16   -5.82867e-16
      67          0.134       -19.9674        4.01642        -15.951   -1.06512e-15   -4.44089e-16   -4.44089e-16
      68          0.136       -19.9004         3.9494        -15.951   -1.00267e-15   -3.60822e-16   -3.60822e-16
      69          0.138       -19.8324        3.88137        -15.951   -9.29812e-16   -4.71845e-16   -4.71845e-16
      70           0.14       -19.7635        3.81248        -15.951    -1.0339e-15   -3.05311e-16   -3.05311e-16
      71          0.142       -19.6938        3.74286        -15.951   -1.02696e-15   -3.60822e-16   -3.60822e-16
      72          0.144       -19.6236        3.67263        -15.951   -1.04777e-15   -4.44089e-16   -4.44089e-16
      73          0.146       -19.5529        3.60192       -15.9509    -9.4369e-16   -7.49401e-16   -7.49401e-16
      74          0.148       -19.4818        3.53083       -15.9509   -1.08247e-15   -1.05471e-15   -1.05471e-15
      75           0.15       -19.4104        3.45947       -15.9509   -1.15186e-15     -1.249e-15     -1.249e-15
      76          0.152       -19.3389        3.38794       -15.9509   -1.09635e-15   -1.33227e-15   -1.33227e-15
      77          0.154       -19.2673        3.31635       -15.9509   -1.06859e-15   -1.08247e-15   -1.08247e-15
      78          0.156       -19.1957        3.24478       -15.9509    -1.1241e-15    -1.4988e-15    -1.4988e-15
      79          0.158       -19.1242        3.17332       -15.9509   -1.27676e-15    -1.4988e-15    -1.4988e-15
      80           0.16        -19.053        3.10206       -15.9509   -1.30451e-15   -1.58207e-15   -1.58207e-15
      81          0.162       -18.9819        3.03106       -15.9509   -1.19349e-15    -1.4988e-15    -1.4988e-15
      82          0.164       -18.9113         2.9604       -15.9509   -1.22125e-15   -1.44329e-15   -1.44329e-15
      83          0.166        -18.841        2.89015       -15.9509   -1.19349e-15   -1.05471e-15   -1.05471e-15
      84          0.168       -18.7712        2.82037       -15.9509   -1.22125e-15   -1.16573e-15   -1.16573e-15
      85           0.17        -18.702        2.75113       -15.9509   -1.19349e-15   -1.41553e-15   -1.41553e-15
      86          0.172       -18.6334        2.68249       -15.9509   -1.33227e-15   -1.44329e-15   -1.44329e-15
      87          0.174       -18.5654        2.61449       -15.9509   -1.27676e-15   -1.52656e-15   -1.52656e-15
      88          0.176        -18.498        2.54719       -15.9509   -1.38778e-15   -1.60982e-15   -1.60982e-15
      89          0.178       -18.4315        2.48064       -15.9509   -1.44329e-15   -1.63758e-15   -1.63758e-15
      90           0.18       -18.3657        2.41488       -15.9509   -1.47105e-15   -1.52656e-15   -1.52656e-15
      91          0.182       -18.3008        2.34995       -15.9509   -1.52656e-15   -1.66533e-15   -1.66533e-15
      92          0.184       -18.2367         2.2859       -15.9508   -1.52656e-15   -1.41553e-15   -1.41553e-15
      93          0.186       -18.1736        2.22276       -15.9508   -1.60982e-15   -1.38778e-15   -1.38778e-15
      94          0.188       -18.1114        2.16056       -15.9508   -1.60982e-15   -1.27676e-15   -1.27676e-15
      95           0.19       -18.0502        2.09935       -15.9508    -1.7486e-15   -1.36002e-15   -1.36002e-15
      96          0.192         -17.99        2.03914       -15.9508   -1.72085e-15   -1.47105e-15   -1.47105e-15
      97          0.194       -17.9308        1.97997       -15.9508   -1.72085e-15   -1.60982e-15   -1.60982e-15
      98          0.196       -17.8727        1.92187       -15.9508   -1.80411e-15   -1.60982e-15   -1.60982e-15
      99          0.198       -17.8157        1.86485       -15.9508   -1.85962e-15   -1.66533e-15   -1.66533e-15
     100            0.2       -17.7598        1.80896       -15.9508   -1.88738e-15   -1.66533e-15   -1.66533e-15
     101          0.202        -17.705        1.75419       -15.9508   -1.88738e-15    -1.4988e-15    -1.4988e-15
     102          0.204       -17.6514        1.70058       -15.9508   -1.94289e-15   -1.36002e-15   -1.36002e-15
     103          0.206        -17.599        1.64815       -15.9508   -1.91513e-15   -1.22125e-15   -1.22125e-15
     104          0.208       -17.5477        1.59691       -15.9508   -1.85962e-15   -1.30451e-15   -1.30451e-15
     105           0.21       -17.4977        1.54687       -15.9508   -1.97065e-15   -1.38778e-15   -1.38778e-15
     106          0.212       -17.4489        1.49807       -15.9508   -1.94289e-15   -1.33227e-15   -1.33227e-15
     107          0.214       -17.4013         1.4505       -15.9508   -1.97065e-15   -1.19349e-15   -1.19349e-15
     108          0.216        -17.355        1.40418       -15.9508   -1.94289e-15   -1.19349e-15   -1.19349e-15
     109          0.218       -17.3099        1.35912       -15.9508   -2.02616e-15     -1.249e-15     -1.249e-15
     110           0.22       -17.2662        1.31534       -15.9508   -2.05391e-15   -1.08247e-15   -1.08247e-15
     111          0.222       -17.2237        1.27285       -15.9508   -2.05391e-15    -9.4369e-16    -9.4369e-16
     112          0.224       -17.1825        1.23165       -15.9508   -2.27596e-15   -9.15934e-16   -9.15934e-16
     113          0.226       -17.1426        1.19176       -15.9508   -2.22045e-15   -1.08247e-15   -1.08247e-15
     114          0.228        -17.104        1.15318       -15.9508   -2.16493e-15   -1.11022e-15   -1.11022e-15
     115           0.23       -17.0667        1.11592       -15.9508   -2.22045e-15     -1.249e-15     -1.249e-15
     116          0.232       -17.0308        1.07999       -15.9508   -2.05391e-15   -1.11022e-15   -1.11022e-15
     117          0.234       -16.9962        1.04539       -15.9508   -2.05391e-15   -1.08247e-15   -1.08247e-15
     118          0.236        -16.963        1.01214       -15.9508   -2.05391e-15   -1.02696e-15   -1.02696e-15
     119          0.238        -16.931       0.980227       -15.9508   -2.05391e-15   -1.02696e-15   -1.02696e-15
     120           0.24       -16.9005        0.94967       -15.9508   -2.05391e-15   -1.08247e-15   -1.08247e-15
     121          0.242       -16.8713       0.920469       -15.9508   -2.05391e-15   -9.99201e-16   -9.99201e-16
     122          0.244       -16.8434        0.89263       -15.9508   -2.22045e-15   -1.19349e-15   -1.19349e-15
     123          0.246        -16.817       0.866156       -15.9508   -2.16493e-15   -1.27676e-15   -1.27676e-15
     124          0.248       -16.7919       0.841051       -15.9508   -2.27596e-15   -1.47105e-15   -1.47105e-15
     125           0.25       -16.7681       0.817319       -15.9508   -2.16493e-15    -1.4988e-15    -1.4988e-15
     126          0.252       -16.7458       0.794962       -15.9508   -2.10942e-15   -1.47105e-15   -1.47105e-15
     127          0.254       -16.7248       0.773985       -15.9508   -2.16493e-15   -1.47105e-15   -1.47105e-15
     128          0.256       -16.7052        0.75439       -15.9508   -2.10942e-15   -1.44329e-15   -1.44329e-15
     129          0.258        -16.687        0.73618       -15.9508   -2.05391e-15   -1.55431e-15   -1.55431e-15
     130           0.26       -16.6702       0.719356       -15.9508   -2.05391e-15   -1.63758e-15   -1.63758e-15
     131          0.262       -16.6547       0.703922       -15.9508   -1.88738e-15   -1.72085e-15   -1.72085e-15
     132          0.264       -16.6407       0.689879       -15.9508   -2.05391e-15   -1.77636e-15   -1.77636e-15
     133          0.266        -16.628        0.67723       -15.9508   -2.05391e-15   -1.88738e-15   -1.88738e-15
     134          0.268       -16.6168       0.665975       -15.9508   -2.05391e-15   -1.97065e-15   -1.97065e-15
     135           0.27       -16.6069       0.656118       -15.9508    -1.9984e-15   -1.94289e-15   -1.94289e-15
     136          0.272       -16.5985       0.647659       -15.9508   -2.05391e-15   -1.91513e-15   -1.91513e-15
     137          0.274       -16.5914       0.640601       -15.9508   -2.10942e-15   -1.94289e-15   -1.94289e-15
     138          0.276       -16.5858       0.634943       -15.9508   -2.05391e-15   -1.94289e-15   -1.94289e-15
     139          0.278       -16.5815       0.630688       -15.9508   -2.10942e-15   -1.88738e-15   -1.88738e-15
     140           0.28       -16.5786       0.627837       -15.9508   -2.10942e-15   -1.94289e-15   -1.94289e-15
     141          0.282       -16.5772       0.626391       -15.9508   -2.33147e-15   -1.97065e-15   -1.97065e-15
     142          0.284       -16.5772        0.62635       -15.9508   -2.38698e-15   -1.94289e-15   -1.94289e-15
     143          0.286       -16.5785       0.627716       -15.9508   -2.27596e-15   -1.94289e-15   -1.94289e-15
     144          0.288       -16.5813       0.630488       -15.9508   -2.33147e-15   -1.94289e-15   -1.94289e-15
     145           0.29       -16.5855       0.634669       -15.9508   -2.44249e-15   -2.02616e-15   -2.02616e-15
     146          0.292       -16.5911       0.640257       -15.9508   -2.44249e-15    -1.9984e-15    -1.9984e-15
     147          0.294       -16.5981       0.647254       -15.9508   -2.33147e-15   -1.97065e-15   -1.97065e-15
     148          0.296       -16.6065        0.65566       -15.9508   -2.38698e-15   -1.97065e-15   -1.97065e-15
     149          0.298       -16.6163       0.665474       -15.9508   -2.16493e-15   -1.94289e-15   -1.94289e-15
     150            0.3       -16.6275       0.676696       -15.9508   -2.16493e-15   -1.97065e-15   -1.97065e-15
     151          0.302       -16.6401       0.689326       -15.9508   -2.16493e-15    -1.9984e-15    -1.9984e-15
     152          0.304       -16.6542       0.703363       -15.9508   -2.27596e-15    -1.9984e-15    -1.9984e-15
     153          0.306       -16.6696       0.718807       -15.9508   -2.22045e-15   -1.97065e-15   -1.97065e-15
     154          0.308       -16.6865       0.735655       -15.9508    -1.9984e-15   -1.97065e-15   -1.97065e-15
     155           0.31       -16.7047       0.753907       -15.9508   -2.16493e-15    -1.9984e-15    -1.9984e-15
     156          0.312       -16.7244       0.773561       -15.9508   -1.94289e-15   -1.97065e-15   -1.97065e-15
     157          0.314       -16.7454       0.794615       -15.9508   -1.94289e-15   -1.97065e-15   -1.97065e-15
     158          0.316       -16.7679       0.817066       -15.9508   -1.88738e-15   -1.91513e-15   -1.91513e-15
     159          0.318       -16.7917       0.840911       -15.9508   -2.05391e-15   -1.94289e-15   -1.94289e-15
     160           0.32        -16.817       0.866147       -15.9508   -2.10942e-15   -1.97065e-15   -1.97065e-15
     161          0.322       -16.8436       0.892771       -15.9508    -1.9984e-15   -2.02616e-15   -2.02616e-15
     162          0.324       -16.8716       0.920777       -15.9508   -2.05391e-15   -2.13718e-15   -2.13718e-15
     163          0.326        -16.901       0.950161       -15.9508   -1.94289e-15   -2.13718e-15   -2.13718e-15
     164          0.328       -16.9317       0.980917       -15.9508   -1.88738e-15   -2.13718e-15   -2.13718e-15
     165           0.33       -16.9639        1.01304       -15.9508    -1.9984e-15   -2.08167e-15   -2.08167e-15
     166          0.332       -16.9973        1.04652       -15.9508    -1.9984e-15   -2.08167e-15   -2.08167e-15
     167          0.334       -17.0322        1.08135       -15.9508    -1.9984e-15   -2.08167e-15   -2.08167e-15
     168          0.336       -17.0683        1.11753       -15.9508   -1.77636e-15   -2.13718e-15   -2.13718e-15
     169          0.338       -17.1059        1.15504       -15.9508   -1.77636e-15   -2.10942e-15   -2.10942e-15
     170           0.34       -17.1447        1.19387       -15.9508    -1.9984e-15   -2.08167e-15   -2.08167e-15
     171          0.342       -17.1848        1.23401       -15.9508   -1.77636e-15   -2.02616e-15   -2.02616e-15
     172          0.344       -17.2263        1.27545       -15.9508   -1.83187e-15   -2.08167e-15   -2.08167e-15
     173          0.346        -17.269        1.31817       -15.9508   -1.77636e-15   -2.10942e-15   -2.10942e-15
     174          0.348        -17.313        1.36216       -15.9508   -1.66533e-15   -2.13718e-15   -2.13718e-15
     175           0.35       -17.3582        1.40741       -15.9508   -1.66533e-15   -2.10942e-15   -2.10942e-15
     176          0.352       -17.4047        1.45389       -15.9508   -1.77636e-15   -2.13718e-15   -2.13718e-15
     177          0.354       -17.4524        1.50158       -15.9508   -1.72085e-15   -2.19269e-15   -2.19269e-15
     178          0.356       -17.5013        1.55047       -15.9508   -1.83187e-15   -2.33147e-15   -2.33147e-15
     179          0.358       -17.5514        1.60053       -15.9508    -1.9984e-15    -2.2482e-15    -2.2482e-15
     180           0.36       -17.6026        1.65174       -15.9508   -1.88738e-15   -2.22045e-15   -2.22045e-15
     181          0.362       -17.6549        1.70406       -15.9508   -1.88738e-15   -2.27596e-15   -2.27596e-15
     182          0.364       -17.7083        1.75748       -15.9508   -1.88738e-15   -2.19269e-15   -2.19269e-15
     183          0.366       -17.7628        1.81196       -15.9508   -1.83187e-15   -2.13718e-15   -2.13718e-15
     184          0.368       -17.8183        1.86746       -15.9508   -1.88738e-15   -2.27596e-15   -2.27596e-15
     185           0.37       -17.8748        1.92396       -15.9508   -1.88738e-15    -2.2482e-15    -2.2482e-15
     186          0.372       -17.9323        1.98141       -15.9508   -1.60982e-15    -2.2482e-15    -2.2482e-15
     187          0.374       -17.9906        2.03978       -15.9509   -1.72085e-15   -2.27596e-15   -2.27596e-15
     188          0.376       -18.0499        2.09901       -15.9509    -1.4988e-15   -2.30371e-15   -2.30371e-15
     189          0.378       -18.1099        2.15908       -15.9509   -1.77636e-15   -2.22045e-15   -2.22045e-15
     190           0.38       -18.1708        2.21992       -15.9509   -1.60982e-15   -2.27596e-15   -2.27596e-15
     191          0.382       -18.2324        2.28149       -15.9509   -1.83187e-15   -2.33147e-15   -2.33147e-15
     192          0.384       -18.2946        2.34373       -15.9509   -1.77636e-15    -2.2482e-15    -2.2482e-15
     193          0.386       -18.3575        2.40659       -15.9509   -2.05391e-15   -2.34535e-15   -2.34535e-15
     194          0.388       -18.4209        2.47001       -15.9509    -1.9984e-15   -2.28983e-15   -2.28983e-15
     195           0.39       -18.4848        2.53393       -15.9509   -2.05391e-15    -2.2482e-15    -2.2482e-15
     196          0.392       -18.5492        2.59827       -15.9509   -2.38698e-15   -2.15106e-15   -2.15106e-15
     197          0.394       -18.6139        2.66298       -15.9509   -2.22045e-15   -2.16493e-15   -2.16493e-15
     198          0.396       -18.6789        2.72798       -15.9509   -2.27596e-15    -2.2482e-15    -2.2482e-15
     199          0.398       -18.7441        2.79319       -15.9509    -1.9984e-15   -2.22045e-15   -2.22045e-15
     200            0.4       -18.8095        2.85855       -15.9509   -2.10942e-15   -2.33147e-15   -2.33147e-15
     201          0.402       -18.8749        2.92398       -15.9509   -2.22045e-15   -2.42861e-15   -2.42861e-15
     202          0.404       -18.9403        2.98939       -15.9509   -2.33147e-15   -2.42861e-15   -2.42861e-15
     203          0.406       -19.0056         3.0547       -15.9509   -2.22045e-15   -2.53964e-15   -2.53964e-15
     204          0.408       -19.0708        3.11983       -15.9509   -2.16493e-15   -2.55351e-15   -2.55351e-15
     205           0.41       -19.1356         3.1847       -15.9509   -2.22045e-15   -2.60902e-15   -2.60902e-15
     206          0.412       -19.2002        3.24922        -15.951   -2.27596e-15   -2.65066e-15   -2.65066e-15
     207          0.414       -19.2643         3.3133        -15.951   -2.27596e-15   -2.76168e-15   -2.76168e-15
     208          0.416       -19.3278        3.37687        -15.951   -2.44249e-15   -2.65066e-15   -2.65066e-15
     209          0.418       -19.3908        3.43983        -15.951   -2.55351e-15   -2.51188e-15   -2.51188e-15
     210           0.42       -19.4531         3.5021        -15.951   -2.33147e-15   -2.56739e-15   -2.56739e-15
     211          0.422       -19.5146        3.56361        -15.951   -2.22045e-15   -2.47025e-15   -2.47025e-15
     212          0.424       -19.5753        3.62427        -15.951   -2.16493e-15   -2.53964e-15   -2.53964e-15
     213          0.426        -19.635        3.68402        -15.951   -2.27596e-15   -2.51188e-15   -2.51188e-15
     214          0.428       -19.6938        3.74278        -15.951   -2.55351e-15   -2.55351e-15   -2.55351e-15
     215           0.43       -19.7515        3.80049        -15.951     -2.498e-15   -2.52576e-15   -2.52576e-15
     216          0.432       -19.8081         3.8571        -15.951   -2.55351e-15   -2.66454e-15   -2.66454e-15
     217          0.434       -19.8636        3.91255        -15.951     -2.498e-15   -2.84495e-15   -2.84495e-15
     218          0.436       -19.9178        3.96679        -15.951   -2.66454e-15   -2.98372e-15   -2.98372e-15
     219          0.438       -19.9708         4.0198        -15.951   -2.72005e-15   -3.13638e-15   -3.13638e-15
     220           0.44       -20.0226        4.07154        -15.951    -2.9976e-15   -3.17801e-15   -3.17801e-15
     221          0.442        -20.073          4.122        -15.951    -2.9976e-15   -3.44169e-15   -3.44169e-15
     222          0.444       -20.1222        4.17116        -15.951   -3.27516e-15   -3.60822e-15   -3.60822e-15
     223          0.446       -20.1701        4.21903        -15.951    -2.9976e-15   -3.78864e-15   -3.78864e-15
     224          0.448       -20.2167        4.26562        -15.951   -3.16414e-15   -4.05231e-15   -4.05231e-15
     225           0.45        -20.262        4.31094        -15.951    -2.9976e-15   -4.09395e-15   -4.09395e-15
     226          0.452       -20.3061        4.35501        -15.951   -2.72005e-15   -4.19109e-15   -4.19109e-15
     227          0.454       -20.3489        4.39788        -15.951    -2.9976e-15   -4.30211e-15   -4.30211e-15
     228          0.456       -20.3906        4.43958        -15.951   -2.77556e-15   -4.38538e-15   -4.38538e-15
     229          0.458       -20.4312        4.48014       -15.9511   -2.83107e-15   -4.27436e-15   -4.27436e-15
     230           0.46       -20.4707        4.51962       -15.9511   -2.88658e-15   -4.19109e-15   -4.19109e-15
     231          0.462       -20.5091        4.55807       -15.9511   -3.16414e-15   -4.06619e-15   -4.06619e-15
     232          0.464       -20.5466        4.59552       -15.9511   -3.16414e-15   -3.88578e-15   -3.88578e-15
     233          0.466       -20.5831        4.63203       -15.9511   -3.05311e-15   -3.89966e-15   -3.89966e-15
     234          0.468       -20.6187        4.66763       -15.9511   -2.94209e-15   -3.78864e-15   -3.78864e-15
     235           0.47       -20.6534        4.70235       -15.9511   -3.10862e-15   -3.78864e-15   -3.78864e-15
     236          0.472       -20.6873        4.73622       -15.9511   -2.88658e-15   -4.10783e-15   -4.10783e-15
     237          0.474       -20.7203        4.76924       -15.9511   -2.94209e-15   -4.16334e-15   -4.16334e-15
     238          0.476       -20.7525        4.80143       -15.9511   -2.83107e-15   -4.51028e-15   -4.51028e-15
     239          0.478       -20.7838        4.83275       -15.9511   -2.94209e-15   -4.53804e-15   -4.53804e-15
     240           0.48       -20.8143        4.86319       -15.9511   -2.77556e-15   -4.44089e-15   -4.44089e-15
     241          0.482       -20.8438         4.8927       -15.9511   -2.60902e-15   -4.46865e-15   -4.46865e-15
     242          0.484       -20.8723        4.92122       -15.9511   -2.55351e-15   -4.59355e-15   -4.59355e-15
     243          0.486       -20.8998        4.94869       -15.9511   -2.38698e-15   -4.39926e-15   -4.39926e-15
     244          0.488       -20.9261        4.97503       -15.9511   -2.05391e-15   -4.52416e-15   -4.52416e-15
     245           0.49       -20.9513        5.00013       -15.9511   -1.94289e-15    -4.7462e-15    -4.7462e-15
     246          0.492       -20.9751        5.02391       -15.9511   -1.77636e-15   -4.55191e-15   -4.55191e-15
     247          0.494       -20.9974        5.04626       -15.9511   -1.88738e-15   -4.57967e-15   -4.57967e-15
     248          0.496       -21.0182        5.06707       -15.9512   -1.66533e-15   -4.44089e-15   -4.44089e-15
     249          0.498       -21.0374        5.08625       -15.9512   -1.55431e-15   -4.30211e-15   -4.30211e-15
     250            0.5       -21.0549        5.10369       -15.9512   -1.72085e-15   -4.19109e-15   -4.19109e-15
     251          0.502       -21.0705        5.11931       -15.9512   -1.60982e-15    -4.3715e-15    -4.3715e-15
     252          0.504       -21.0842        5.13304       -15.9512   -1.44329e-15   -4.71845e-15   -4.71845e-15
     253          0.506        -21.096        5.14482       -15.9512   -1.55431e-15   -4.82947e-15   -4.82947e-15
     254          0.508       -21.1058        5.15463       -15.9512   -1.52656e-15    -5.1209e-15    -5.1209e-15
     255           0.51       -21.1137        5.16245       -15.9512   -1.41553e-15   -5.13478e-15   -5.13478e-15
     256          0.512       -21.1195         5.1683       -15.9512   -1.33227e-15   -4.85723e-15   -4.85723e-15
     257          0.514       -21.1234        5.17223       -15.9512     -1.249e-15   -4.95437e-15   -4.95437e-15
     258          0.516       -21.1255        5.17431       -15.9512    -9.4369e-16   -5.03764e-15   -5.03764e-15
     259          0.518       -21.1258        5.17463       -15.9512   -8.88178e-16   -4.97519e-15   -4.97519e-15
     260           0.52       -21.1245        5.17334       -15.9512   -9.71445e-16   -4.86416e-15   -4.86416e-15
     261          0.522       -21.1218        5.17058       -15.9512   -1.13798e-15   -4.86416e-15   -4.86416e-15