Time step           time             PE             KE             TE             Px             Py             Pz
       0              0              0              0              0              0              0              0
       1          0.002       -15.9584     0.00818648       -15.9502    3.46945e-18    7.91468e-18    7.91468e-18
       2          0.004       -15.9829        0.03676       -15.9461              0   -2.92735e-18   -2.92735e-18
       3          0.006       -16.0234      0.0915846       -15.9318   -2.08167e-17   -3.43692e-17   -3.43692e-17
       4          0.008       -16.0797       0.175203       -15.9045   -3.46945e-17   -7.15573e-17   -7.15573e-17
       5           0.01       -16.1511       0.288353       -15.8627   -4.16334e-17    -8.2833e-17    -8.2833e-17
       6          0.012       -16.2369       0.430731       -15.8062   -1.38778e-17   -1.41163e-16   -1.41163e-16
       7          0.014       -16.3364       0.601389        -15.735    5.55112e-17   -1.90386e-16   -1.90386e-16
       8          0.016       -16.4487       0.798946       -15.6498    1.38778e-16   -2.21069e-16   -2.21069e-16
       9          0.018       -16.5728        1.02171       -15.5511    2.22045e-16   -1.35308e-16   -1.35308e-16
      10           0.02       -16.7075        1.26774       -15.4398    3.05311e-16    7.96889e-18    7.96889e-18
      11          0.022       -16.8517        1.53492       -15.3168    4.71845e-16    1.94506e-16    1.94506e-16
      12          0.024       -17.0043        1.82101       -15.1833    6.10623e-16     5.5381e-16     5.5381e-16
      13          0.026        -17.164        2.12364       -15.0403    6.66134e-16    8.71699e-16    8.71699e-16
      14          0.028       -17.3295         2.4404       -14.8891    6.93889e-16    1.29367e-15    1.29367e-15
      15           0.03       -17.4996        2.76884       -14.7308    7.77156e-16    1.56299e-15    1.56299e-15
      16          0.032       -17.6731        3.10651       -14.5666    8.60423e-16    2.04177e-15    2.04177e-15
      17          0.034       -17.8489        3.45099       -14.3979    8.88178e-16    2.34882e-15    2.34882e-15
      18          0.036       -18.0256        3.79992       -14.2257    8.60423e-16    2.58474e-15    2.58474e-15
      19          0.038       -18.2023        4.15101       -14.0513    8.60423e-16    2.76862e-15    2.76862e-15
      20           0.04       -18.3779        4.50207       -13.8758    8.88178e-16    3.10516e-15    3.10516e-15
      21          0.042       -18.5514        4.85104       -13.7003    9.99201e-16    3.42781e-15    3.42781e-15
      22          0.044       -18.7219        5.19597       -13.5259    1.13798e-15    3.63945e-15    3.63945e-15
      23          0.046       -18.8885        5.53507       -13.3535    1.22125e-15    3.64639e-15    3.64639e-15
      24          0.048       -19.0506        5.86667       -13.1839    1.38778e-15    3.94476e-15    3.94476e-15
      25           0.05       -19.2075        6.18929       -13.0182    1.47105e-15    4.09742e-15    4.09742e-15
      26          0.052       -19.3585        6.50158       -12.8569    1.41553e-15    4.53457e-15    4.53457e-15
      27          0.054       -19.5031        6.80235       -12.7008    1.22125e-15    4.94743e-15    4.94743e-15
      28          0.056        -19.641        7.09058       -12.5504    1.13798e-15    5.14172e-15    5.14172e-15
      29          0.058       -19.7717        7.36538       -12.4063    1.05471e-15     5.1209e-15     5.1209e-15
      30           0.06       -19.8949        7.62602       -12.2689    9.99201e-16    5.35683e-15    5.35683e-15
      31          0.062       -20.0105         7.8719       -12.1386    8.32667e-16    5.54418e-15    5.54418e-15
      32          0.064       -20.1182        8.10256       -12.0156    6.10623e-16     5.6552e-15     5.6552e-15
      33          0.066        -20.218        8.31766       -11.9003    3.33067e-16    5.80092e-15    5.80092e-15
      34          0.068       -20.3097        8.51698       -11.7928    2.77556e-17    6.00214e-15    6.00214e-15
      35           0.07       -20.3935         8.7004       -11.6931     -4.996e-16    6.19643e-15    6.19643e-15
      36          0.072       -20.4693         8.8679       -11.6014    -9.4369e-16    6.46705e-15    6.46705e-15
      37          0.074       -20.5371        9.01954       -11.5176   -1.30451e-15    6.84175e-15    6.84175e-15
      38          0.076       -20.5972        9.15548       -11.4418   -1.69309e-15    7.41074e-15    7.41074e-15
      39          0.078       -20.6497        9.27592       -11.3738   -2.08167e-15    7.67442e-15    7.67442e-15
      40           0.08       -20.6947        9.38116       -11.3135   -2.41474e-15    8.18789e-15    8.18789e-15
      41          0.082       -20.7324        9.47151       -11.2609   -2.91434e-15    8.54872e-15    8.54872e-15
      42          0.084       -20.7631        9.54737       -11.2157   -3.41394e-15    8.65974e-15    8.65974e-15
      43          0.086       -20.7869        9.60914       -11.1777    -3.9968e-15    8.63198e-15    8.63198e-15
      44          0.088       -20.8041        9.65728       -11.1468   -4.66294e-15    8.71525e-15    8.71525e-15
      45           0.09        -20.815        9.69226       -11.1227   -5.13478e-15    8.74301e-15    8.74301e-15
      46          0.092       -20.8198        9.71457       -11.1052   -5.71765e-15    8.88178e-15    8.88178e-15
      47          0.094       -20.8188        9.72474       -11.0941   -6.52256e-15    9.14546e-15    9.14546e-15
      48          0.096       -20.8122        9.72328        -11.089   -7.43849e-15    9.70057e-15    9.70057e-15
      49          0.098       -20.8004        9.71072       -11.0897   -8.54872e-15    1.02696e-14    1.02696e-14
      50            0.1       -20.7835         9.6876       -11.0959   -9.71445e-15    1.04916e-14    1.04916e-14
      51          0.102       -20.7619        9.65444       -11.1075   -1.09635e-14    1.09912e-14    1.09912e-14
      52          0.104       -20.7358        9.61178        -11.124   -1.22541e-14     1.1241e-14     1.1241e-14
      53          0.106       -20.7055        9.56015       -11.1453   -1.35725e-14    1.16573e-14    1.16573e-14
      54          0.108       -20.6712        9.50005       -11.1711   -1.48354e-14    1.19349e-14    1.19349e-14
      55           0.11       -20.6331        9.43199       -11.2012   -1.60011e-14      1.249e-14      1.249e-14
      56          0.112       -20.5916        9.35647       -11.2352   -1.71668e-14    1.28231e-14    1.28231e-14
      57          0.114       -20.5469        9.27398       -11.2729   -1.84436e-14    1.34892e-14    1.34892e-14
      58          0.116       -20.4991        9.18498       -11.3141   -1.97342e-14    1.40443e-14    1.40443e-14
      59          0.118       -20.4486        9.08993       -11.3586   -2.09832e-14    1.40721e-14    1.40721e-14
      60           0.12       -20.3954        8.98928       -11.4061   -2.21212e-14    1.41831e-14    1.41831e-14
      61          0.122       -20.3399        8.88344       -11.4564   -2.31759e-14    1.44884e-14    1.44884e-14
      62          0.124       -20.2822        8.77284       -11.5093   -2.42896e-14    1.46549e-14    1.46549e-14
      63          0.126       -20.2225        8.65786       -11.5646   -2.54206e-14    1.49047e-14    1.49047e-14
      64          0.128        -20.161         8.5389       -11.6221   -2.65196e-14    1.50435e-14    1.50435e-14
      65           0.13       -20.0979        8.41631       -11.6816   -2.76099e-14    1.46549e-14    1.46549e-14
      66          0.132       -20.0333        8.29044       -11.7429   -2.86732e-14    1.40721e-14    1.40721e-14
      67          0.134       -19.9674        8.16164       -11.8058   -2.97089e-14    1.35447e-14    1.35447e-14
      68          0.136       -19.9004        8.03022       -11.8702   -3.06456e-14    1.29619e-14    1.29619e-14
      69          0.138       -19.8324        7.89648       -11.9359    -3.1572e-14    1.26288e-14    1.26288e-14
      70           0.14       -19.7635        7.76073       -12.0027   -3.26197e-14    1.21292e-14    1.21292e-14
      71          0.142       -19.6938        7.62322       -12.0706   -3.36675e-14    1.18516e-14    1.18516e-14
      72          0.144       -19.6236        7.48425       -12.1393   -3.46875e-14    1.13243e-14    1.13243e-14
      73          0.146       -19.5529        7.34404       -12.2088   -3.56937e-14    1.05749e-14    1.05749e-14
      74          0.148       -19.4818        7.20285       -12.2789   -3.67206e-14    9.60343e-15    9.60343e-15
      75           0.15       -19.4104        7.06089       -12.3495   -3.78447e-14    8.29892e-15    8.29892e-15
      76          0.152       -19.3389        6.91839       -12.4205    -3.8955e-14    7.10543e-15    7.10543e-15
      77          0.154       -19.2673        6.77555       -12.4917   -4.00374e-14    6.02296e-15    6.02296e-15
      78          0.156       -19.1957        6.63256       -12.5631   -4.11476e-14    4.71845e-15    4.71845e-15
      79          0.158       -19.1242         6.4896       -12.6346    -4.2355e-14    3.16414e-15    3.16414e-15
      80           0.16        -19.053        6.34686       -12.7061    -4.3604e-14    1.52656e-15    1.52656e-15
      81          0.162       -18.9819        6.20448       -12.7775   -4.47697e-14    5.55112e-17    5.55112e-17
      82          0.164       -18.9113        6.06264       -12.8486   -4.59632e-14   -1.22125e-15   -1.22125e-15
      83          0.166        -18.841        5.92146       -12.9196   -4.71567e-14   -2.38698e-15   -2.38698e-15
      84          0.168       -18.7712         5.7811       -12.9901   -4.84057e-14   -3.60822e-15   -3.60822e-15
      85           0.17        -18.702        5.64168       -13.0603   -4.95992e-14   -4.96825e-15   -4.96825e-15
      86          0.172       -18.6334        5.50333         -13.13   -5.09592e-14   -6.32827e-15   -6.32827e-15
      87          0.174       -18.5654        5.36615       -13.1992    -5.2236e-14   -7.96585e-15   -7.96585e-15
      88          0.176        -18.498        5.23027       -13.2678   -5.36793e-14   -9.60343e-15   -9.60343e-15
      89          0.178       -18.4315        5.09577       -13.3357   -5.51781e-14   -1.11855e-14   -1.11855e-14
      90           0.18       -18.3657        4.96276        -13.403   -5.66491e-14   -1.28508e-14   -1.28508e-14
      91          0.182       -18.3008        4.83133       -13.4695   -5.81479e-14   -1.45439e-14   -1.45439e-14
      92          0.184       -18.2367        4.70156       -13.5352   -5.96467e-14   -1.60705e-14   -1.60705e-14
      93          0.186       -18.1736        4.57354       -13.6001   -6.12288e-14    -1.7597e-14    -1.7597e-14
      94          0.188       -18.1114        4.44733       -13.6641   -6.28941e-14   -1.88183e-14   -1.88183e-14
      95           0.19       -18.0502        4.32301       -13.7272   -6.45872e-14   -2.02338e-14   -2.02338e-14
      96          0.192         -17.99        4.20065       -13.7893   -6.62803e-14   -2.16771e-14   -2.16771e-14
      97          0.194       -17.9308        4.08029       -13.8505   -6.80012e-14   -2.31482e-14   -2.31482e-14
      98          0.196       -17.8727        3.96202       -13.9107   -6.98053e-14   -2.47025e-14   -2.47025e-14
      99          0.198       -17.8157        3.84586       -13.9698   -7.16371e-14   -2.63123e-14   -2.63123e-14
     100            0.2       -17.7598        3.73189       -14.0279   -7.35523e-14   -2.78666e-14   -2.78666e-14
     101          0.202        -17.705        3.62013       -14.0849   -7.53841e-14   -2.93654e-14   -2.93654e-14
     102          0.204       -17.6514        3.51065       -14.1408    -7.7327e-14   -3.06699e-14   -3.06699e-14
     103          0.206        -17.599        3.40347       -14.1955   -7.92422e-14   -3.18634e-14   -3.18634e-14
     104          0.208       -17.5477        3.29864       -14.2491   -8.11295e-14   -3.31679e-14   -3.31679e-14
     105           0.21       -17.4977         3.1962       -14.3015   -8.30169e-14   -3.44724e-14   -3.44724e-14
     106          0.212       -17.4489        3.09616       -14.3527   -8.49876e-14   -3.57492e-14   -3.57492e-14
     107          0.214       -17.4013        2.99858       -14.4027   -8.69027e-14   -3.69427e-14   -3.69427e-14
     108          0.216        -17.355        2.90347       -14.4515   -8.88734e-14   -3.80529e-14   -3.80529e-14
     109          0.218       -17.3099        2.81086       -14.4991    -9.0844e-14   -3.92186e-14   -3.92186e-14
     110           0.22       -17.2662        2.72077       -14.5454   -9.29812e-14   -4.02733e-14   -4.02733e-14
     111          0.222       -17.2237        2.63324       -14.5904   -9.50906e-14   -4.12448e-14   -4.12448e-14
     112          0.224       -17.1825        2.54827       -14.6342    -9.7311e-14   -4.21052e-14   -4.21052e-14
     113          0.226       -17.1426        2.46589       -14.6767    -9.9476e-14   -4.31599e-14   -4.31599e-14
     114          0.228        -17.104        2.38613       -14.7179   -1.01641e-13   -4.44089e-14   -4.44089e-14
     115           0.23       -17.0667        2.30898       -14.7578   -1.03806e-13   -4.56579e-14   -4.56579e-14
     116          0.232       -17.0308        2.23448       -14.7963    -1.0586e-13   -4.67404e-14   -4.67404e-14
     117          0.234       -16.9962        2.16263       -14.8336   -1.07969e-13   -4.77118e-14   -4.77118e-14
     118          0.236        -16.963        2.09345       -14.8695   -1.09968e-13   -4.87665e-14   -4.87665e-14
     119          0.238        -16.931        2.02695       -14.9041   -1.12022e-13   -4.97657e-14   -4.97657e-14
     120           0.24       -16.9005        1.96315       -14.9373   -1.14075e-13   -5.08205e-14   -5.08205e-14
     121          0.242       -16.8713        1.90204       -14.9692   -1.16185e-13   -5.18474e-14   -5.18474e-14
     122          0.244       -16.8434        1.84365       -14.9998    -1.1835e-13   -5.29299e-14   -5.29299e-14
     123          0.246        -16.817        1.78798        -15.029   -1.20515e-13   -5.41234e-14   -5.41234e-14
     124          0.248       -16.7919        1.73504       -15.0568   -1.22735e-13   -5.56499e-14   -5.56499e-14
     125           0.25       -16.7681        1.68484       -15.0833   -1.24845e-13   -5.71765e-14   -5.71765e-14
     126          0.252       -16.7458        1.63738       -15.1084    -1.2701e-13   -5.86475e-14   -5.86475e-14
     127          0.254       -16.7248        1.59268       -15.1321   -1.29174e-13   -6.00908e-14   -6.00908e-14
     128          0.256       -16.7052        1.55073       -15.1545   -1.31339e-13   -6.15619e-14   -6.15619e-14
     129          0.258        -16.687        1.51154       -15.1754   -1.33504e-13   -6.31162e-14   -6.31162e-14
     130           0.26       -16.6702        1.47513        -15.195   -1.35503e-13   -6.47538e-14   -6.47538e-14
     131          0.262       -16.6547        1.44149       -15.2132   -1.37446e-13   -6.64468e-14   -6.64468e-14
     132          0.264       -16.6407        1.41062       -15.2301     -1.395e-13   -6.82787e-14   -6.82787e-14
     133          0.266        -16.628        1.38254       -15.2455   -1.41498e-13   -7.01661e-14   -7.01661e-14
     134          0.268       -16.6168        1.35725       -15.2595   -1.43496e-13   -7.21367e-14   -7.21367e-14
     135           0.27       -16.6069        1.33474       -15.2722    -1.4555e-13   -7.41074e-14   -7.41074e-14
     136          0.272       -16.5985        1.31503       -15.2834   -1.47604e-13    -7.5967e-14    -7.5967e-14
     137          0.274       -16.5914        1.29812       -15.2933   -1.49769e-13   -7.79377e-14   -7.79377e-14
     138          0.276       -16.5858          1.284       -15.3018   -1.51934e-13   -7.98805e-14   -7.98805e-14
     139          0.278       -16.5815        1.27269       -15.3088   -1.53988e-13   -8.17679e-14   -8.17679e-14
     140           0.28       -16.5786        1.26418       -15.3145   -1.56097e-13   -8.36553e-14   -8.36553e-14
     141          0.282       -16.5772        1.25848       -15.3187   -1.58429e-13   -8.55704e-14   -8.55704e-14
     142          0.284       -16.5772        1.25559       -15.3216   -1.60705e-13   -8.74856e-14   -8.74856e-14
     143          0.286       -16.5785        1.25551        -15.323   -1.63036e-13   -8.94285e-14   -8.94285e-14
     144          0.288       -16.5813        1.25824       -15.3231   -1.65312e-13   -9.13714e-14   -9.13714e-14
     145           0.29       -16.5855        1.26379       -15.3217   -1.67866e-13   -9.33975e-14   -9.33975e-14
     146          0.292       -16.5911        1.27215       -15.3189   -1.70308e-13   -9.53682e-14   -9.53682e-14
     147          0.294       -16.5981        1.28333       -15.3147    -1.7264e-13   -9.73388e-14   -9.73388e-14
     148          0.296       -16.6065        1.29733       -15.3091   -1.74916e-13   -9.93094e-14   -9.93094e-14
     149          0.298       -16.6163        1.31414       -15.3021   -1.77136e-13   -1.01252e-13   -1.01252e-13
     150            0.3       -16.6275        1.33376       -15.2937   -1.79357e-13   -1.03223e-13   -1.03223e-13
     151          0.302       -16.6401        1.35621       -15.2839   -1.81577e-13   -1.05249e-13   -1.05249e-13
     152          0.304       -16.6542        1.38147       -15.2727   -1.83908e-13   -1.07248e-13   -1.07248e-13
     153          0.306       -16.6696        1.40954       -15.2601   -1.86073e-13   -1.09218e-13   -1.09218e-13
     154          0.308       -16.6865        1.44043        -15.246   -1.88072e-13   -1.11189e-13   -1.11189e-13
     155           0.31       -16.7047        1.47412       -15.2306   -1.90237e-13   -1.13187e-13   -1.13187e-13
     156          0.312       -16.7244        1.51062       -15.2138   -1.92235e-13   -1.15158e-13   -1.15158e-13
     157          0.314       -16.7454        1.54993       -15.1955   -1.94234e-13   -1.17101e-13   -1.17101e-13
     158          0.316       -16.7679        1.59203       -15.1758   -1.96176e-13   -1.19044e-13   -1.19044e-13
     159          0.318       -16.7917        1.63693       -15.1548   -1.98119e-13   -1.20959e-13   -1.20959e-13
     160           0.32        -16.817        1.68461       -15.1323   -2.00173e-13   -1.22929e-13   -1.22929e-13
     161          0.322       -16.8436        1.73508       -15.1085   -2.02061e-13   -1.24983e-13   -1.24983e-13
     162          0.324       -16.8716        1.78831       -15.0833   -2.04115e-13   -1.27148e-13   -1.27148e-13
     163          0.326        -16.901        1.84432       -15.0567   -2.06002e-13   -1.29313e-13   -1.29313e-13
     164          0.328       -16.9317        1.90308       -15.0287   -2.07945e-13   -1.31478e-13   -1.31478e-13
     165           0.33       -16.9639        1.96458       -14.9993   -2.09832e-13   -1.33588e-13   -1.33588e-13
     166          0.332       -16.9973        2.02881       -14.9685   -2.11831e-13   -1.35641e-13   -1.35641e-13
     167          0.334       -17.0322        2.09576       -14.9364   -2.13829e-13   -1.37723e-13   -1.37723e-13
     168          0.336       -17.0683        2.16541       -14.9029   -2.15605e-13    -1.3986e-13    -1.3986e-13
     169          0.338       -17.1059        2.23774       -14.8681   -2.17382e-13   -1.41942e-13   -1.41942e-13
     170           0.34       -17.1447        2.31274       -14.8319    -2.1938e-13   -1.44024e-13   -1.44024e-13
     171          0.342       -17.1848        2.39037       -14.7945   -2.21156e-13    -1.4605e-13    -1.4605e-13
     172          0.344       -17.2263        2.47063       -14.7556   -2.22988e-13   -1.48132e-13   -1.48132e-13
     173          0.346        -17.269        2.55349       -14.7155   -2.24709e-13   -1.50213e-13   -1.50213e-13
     174          0.348        -17.313        2.63891       -14.6741   -2.26374e-13    -1.5235e-13    -1.5235e-13
     175           0.35       -17.3582        2.72686       -14.6314   -2.27929e-13   -1.54488e-13   -1.54488e-13
     176          0.352       -17.4047        2.81732       -14.5874   -2.29594e-13    -1.5668e-13    -1.5668e-13
     177          0.354       -17.4524        2.91024       -14.5422   -2.31315e-13   -1.58845e-13   -1.58845e-13
     178          0.356       -17.5013        3.00559       -14.4957   -2.33202e-13   -1.61149e-13   -1.61149e-13
     179          0.358       -17.5514        3.10333        -14.448   -2.35145e-13   -1.63397e-13   -1.63397e-13
     180           0.36       -17.6026         3.2034       -14.3992   -2.37033e-13    -1.6559e-13    -1.6559e-13
     181          0.362       -17.6549        3.30577       -14.3491   -2.38809e-13   -1.67866e-13   -1.67866e-13
     182          0.364       -17.7083        3.41036        -14.298   -2.40807e-13   -1.70058e-13   -1.70058e-13
     183          0.366       -17.7628        3.51714       -14.2457    -2.4275e-13   -1.72223e-13   -1.72223e-13
     184          0.368       -17.8183        3.62603       -14.1923   -2.44582e-13   -1.74472e-13   -1.74472e-13
     185           0.37       -17.8748        3.73698       -14.1378   -2.46358e-13    -1.7672e-13    -1.7672e-13
     186          0.372       -17.9323         3.8499       -14.0824   -2.48079e-13    -1.7894e-13    -1.7894e-13
     187          0.374       -17.9906        3.96473       -14.0259   -2.49745e-13   -1.81244e-13   -1.81244e-13
     188          0.376       -18.0499        4.08138       -13.9685   -2.51299e-13   -1.83548e-13   -1.83548e-13
     189          0.378       -18.1099        4.19977       -13.9102   -2.53131e-13   -1.85796e-13   -1.85796e-13
     190           0.38       -18.1708         4.3198        -13.851   -2.54741e-13   -1.88016e-13   -1.88016e-13
     191          0.382       -18.2324        4.44139        -13.791   -2.56517e-13   -1.90292e-13   -1.90292e-13
     192          0.384       -18.2946        4.56443       -13.7302    -2.5846e-13    -1.9254e-13    -1.9254e-13
     193          0.386       -18.3575        4.68881       -13.6687   -2.60514e-13   -1.94858e-13   -1.94858e-13
     194          0.388       -18.4209        4.81442       -13.6065   -2.62679e-13   -1.97134e-13   -1.97134e-13
     195           0.39       -18.4848        4.94113       -13.5437   -2.64733e-13   -1.99368e-13   -1.99368e-13
     196          0.392       -18.5492        5.06884       -13.4803   -2.67064e-13   -2.01547e-13   -2.01547e-13
     197          0.394       -18.6139         5.1974       -13.4165    -2.6934e-13    -2.0367e-13    -2.0367e-13
     198          0.396       -18.6789        5.32667       -13.3522   -2.71616e-13   -2.05863e-13   -2.05863e-13
     199          0.398       -18.7441        5.45653       -13.2876   -2.73781e-13   -2.08167e-13   -2.08167e-13
     200            0.4       -18.8095        5.58682       -13.2226   -2.76112e-13   -2.10498e-13   -2.10498e-13
     201          0.402       -18.8749        5.71739       -13.1575   -2.78444e-13   -2.12927e-13   -2.12927e-13
     202          0.404       -18.9403        5.84808       -13.0922   -2.80775e-13   -2.15369e-13   -2.15369e-13
     203          0.406       -19.0056        5.97874       -13.0269   -2.82885e-13   -2.17923e-13   -2.17923e-13
     204          0.408       -19.0708         6.1092       -12.9616    -2.8505e-13    -2.2049e-13    -2.2049e-13
     205           0.41       -19.1356         6.2393       -12.8963   -2.87326e-13   -2.23099e-13   -2.23099e-13
     206          0.412       -19.2002        6.36887       -12.8313   -2.89602e-13   -2.25805e-13   -2.25805e-13
     207          0.414       -19.2643        6.49774       -12.7665   -2.92044e-13   -2.28581e-13   -2.28581e-13
     208          0.416       -19.3278        6.62574       -12.7021   -2.94431e-13   -2.31246e-13   -2.31246e-13
     209          0.418       -19.3908        6.75269       -12.6381   -2.96985e-13   -2.33771e-13   -2.33771e-13
     210           0.42       -19.4531        6.87845       -12.5746   -2.99205e-13   -2.36269e-13   -2.36269e-13
     211          0.422       -19.5146        7.00283       -12.5118   -3.01315e-13   -2.38726e-13   -2.38726e-13
     212          0.424       -19.5753        7.12569       -12.4496   -3.03257e-13   -2.41238e-13   -2.41238e-13
     213          0.426        -19.635        7.24686       -12.3882   -3.05367e-13   -2.43763e-13   -2.43763e-13
     214          0.428       -19.6938        7.36621       -12.3276   -3.07643e-13   -2.46247e-13   -2.46247e-13
     215           0.43       -19.7515         7.4836       -12.2679   -3.10252e-13   -2.48773e-13   -2.48773e-13
     216          0.432       -19.8081         7.5989       -12.2092   -3.12972e-13   -2.51577e-13   -2.51577e-13
     217          0.434       -19.8636          7.712       -12.1516   -3.15359e-13   -2.54421e-13   -2.54421e-13
     218          0.436       -19.9178        7.82279        -12.095   -3.17968e-13   -2.57447e-13   -2.57447e-13
     219          0.438       -19.9708        7.93119       -12.0396   -3.20688e-13   -2.60597e-13   -2.60597e-13
     220           0.44       -20.0226        8.03713       -11.9854    -3.2363e-13   -2.63636e-13   -2.63636e-13
     221          0.442        -20.073        8.14056       -11.9325   -3.26739e-13   -2.67009e-13   -2.67009e-13
     222          0.444       -20.1222        8.24144       -11.8808   -3.29903e-13   -2.70617e-13   -2.70617e-13
     223          0.446       -20.1701        8.33975       -11.8303   -3.32734e-13   -2.74461e-13   -2.74461e-13
     224          0.448       -20.2167        8.43549       -11.7812   -3.35787e-13   -2.78499e-13   -2.78499e-13
     225           0.45        -20.262        8.52868       -11.7333   -3.38729e-13   -2.82538e-13   -2.82538e-13
     226          0.452       -20.3061        8.61936       -11.6867    -3.4156e-13   -2.86632e-13   -2.86632e-13
     227          0.454       -20.3489        8.70756       -11.6414   -3.44502e-13   -2.90962e-13   -2.90962e-13
     228          0.456       -20.3906        8.79335       -11.5973   -3.47389e-13   -2.95264e-13   -2.95264e-13
     229          0.458       -20.4312        8.87682       -11.5544   -3.50331e-13   -2.99594e-13   -2.99594e-13
     230           0.46       -20.4707        8.95803       -11.5126   -3.53273e-13   -3.03729e-13   -3.03729e-13
     231          0.462       -20.5091        9.03708        -11.472   -3.56437e-13   -3.07823e-13   -3.07823e-13
     232          0.464       -20.5466        9.11407       -11.4325   -3.59768e-13   -3.11862e-13   -3.11862e-13
     233          0.466       -20.5831        9.18906        -11.394   -3.62765e-13   -3.15872e-13   -3.15872e-13
     234          0.468       -20.6187        9.26216       -11.3565   -3.65541e-13   -3.19647e-13   -3.19647e-13
     235           0.47       -20.6534        9.33343         -11.32   -3.68594e-13   -3.23533e-13   -3.23533e-13
     236          0.472       -20.6873        9.40294       -11.2843   -3.71481e-13   -3.27627e-13   -3.27627e-13
     237          0.474       -20.7203        9.47071       -11.2496   -3.74201e-13   -3.31901e-13   -3.31901e-13
     238          0.476       -20.7525        9.53678       -11.2157   -3.77198e-13   -3.36245e-13   -3.36245e-13
     239          0.478       -20.7838        9.60114       -11.1827   -3.79974e-13   -3.40714e-13   -3.40714e-13
     240           0.48       -20.8143        9.66376       -11.1505   -3.82694e-13   -3.45279e-13   -3.45279e-13
     241          0.482       -20.8438        9.72458       -11.1192   -3.85192e-13   -3.49748e-13   -3.49748e-13
     242          0.484       -20.8723        9.78351       -11.0888   -3.87579e-13   -3.54314e-13   -3.54314e-13
     243          0.486       -20.8998        9.84045       -11.0594   -3.90077e-13   -3.58782e-13   -3.58782e-13
     244          0.488       -20.9261        9.89525       -11.0309   -3.92186e-13   -3.63348e-13   -3.63348e-13
     245           0.49       -20.9513        9.94776       -11.0035   -3.94074e-13   -3.68233e-13   -3.68233e-13
     246          0.492       -20.9751        9.99779       -10.9773   -3.95906e-13   -3.72924e-13   -3.72924e-13
     247          0.494       -20.9974        10.0452       -10.9523   -3.97793e-13   -3.77393e-13   -3.77393e-13
     248          0.496       -21.0182        10.0897       -10.9286   -3.99347e-13   -3.81695e-13   -3.81695e-13
     249          0.498       -21.0374        10.1311       -10.9063   -4.01013e-13   -3.85775e-13   -3.85775e-13
     250            0.5       -21.0549        10.1692       -10.8856   -4.02733e-13   -3.90105e-13   -3.90105e-13
     251          0.502       -21.0705        10.2039       -10.8666   -4.04399e-13   -3.94504e-13   -3.94504e-13
     252          0.504       -21.0842         10.235       -10.8492   -4.05787e-13    -3.9907e-13    -3.9907e-13
     253          0.506        -21.096        10.2623       -10.8337    -4.0723e-13   -4.04066e-13   -4.04066e-13
     254          0.508       -21.1058        10.2858         -10.82   -4.08756e-13   -4.09242e-13   -4.09242e-13
     255           0.51       -21.1137        10.3054       -10.8083     -4.102e-13   -4.14141e-13   -4.14141e-13
     256          0.512       -21.1195         10.321       -10.7985   -4.11449e-13    -4.1897e-13    -4.1897e-13
     257          0.514       -21.1234        10.3327       -10.7907   -4.12698e-13   -4.23953e-13   -4.23953e-13
     258          0.516       -21.1255        10.3407       -10.7848   -4.13725e-13   -4.28921e-13   -4.28921e-13
     259          0.518       -21.1258         10.345       -10.7809   -4.14557e-13   -4.33965e-13   -4.33965e-13
     260           0.52       -21.1245        10.3458       -10.7787   -4.15529e-13   -4.38739e-13   -4.38739e-13
     261          0.522       -21.1218        10.3435       -10.7783   -4.16583e-13   -4.43624e-13   -4.43624e-13