       0           0         100     16.7675           0     316.215     316.215    -1.4988e-15    5.10703e-15    5.10703e-15
     100         0.2     100.146     8.12875    -905.737     316.676    -589.062   -3.06144e-14    4.75175e-14    4.75175e-14
     200         0.4     100.133    -2.55821    -881.045     316.637    -564.409    -2.5091e-14    4.37428e-14    4.37428e-14
     300         0.6     99.8431     2.02804    -855.422     315.719    -539.703   -1.36557e-14    3.91354e-15    3.91354e-15
     400         0.8     100.197    -3.25236    -854.474     316.838    -537.636   -1.29896e-14    2.60902e-15    2.60902e-15
     500           1     99.9731   -0.315211    -846.495      316.13    -530.365    -5.9952e-15   -7.77156e-15   -7.77156e-15
     600         1.2     100.124     -13.329     -856.37     316.609    -539.762   -2.84217e-14   -1.19904e-14   -1.19904e-14
     700         1.4     100.076    -8.84449    -849.588     316.457    -533.131   -1.76525e-14    4.77396e-15    4.77396e-15
     800         1.6     99.9988    -5.00251    -846.976     316.211    -530.765   -3.23075e-14     2.4869e-14     2.4869e-14
     900         1.8      99.899     6.61303    -838.758     315.896    -522.862   -9.90874e-15    3.57492e-14    3.57492e-14
    1000           2     100.049     1.73577    -845.399      316.37    -529.029    7.71605e-15    2.30926e-14    2.30926e-14
    1100         2.2     99.8457    -4.44947    -859.073     315.727    -543.346    8.43769e-15     3.5083e-14     3.5083e-14
    1200         2.4     99.9958    -4.01734    -867.964     316.202    -551.763    3.77476e-15    1.93179e-14    1.93179e-14
    1300         2.6     100.112     1.96809    -863.706     316.568    -547.138    1.21014e-14    3.52079e-14    3.52079e-14
    1400         2.8     100.231     3.09497    -861.413     316.946    -544.467    3.68594e-14    4.37428e-14    4.37428e-14
    1500           3     100.142     1.90157    -863.503     316.664    -546.839    3.34177e-14    2.93099e-14    2.93099e-14
    1600         3.2      100.02    -1.74043     -868.06     316.279    -551.782    3.78864e-14    3.43475e-14    3.43475e-14
    1700         3.4     99.9458     2.15026     -858.34     316.044    -542.296    4.78506e-14    3.95239e-14    3.95239e-14
    1800         3.6     99.8778     -12.319    -871.129     315.829      -555.3    5.93969e-14    2.39808e-14    2.39808e-14
    1900         3.8     99.8314      2.9038    -846.132     315.682     -530.45    4.53526e-14    3.01981e-14    3.01981e-14
    2000           4      100.04     12.3118    -839.522     316.342     -523.18    1.64313e-14    2.44249e-14    2.44249e-14
    2100         4.2     100.042     5.46174     -847.91     316.349    -531.562    4.05231e-14    1.57652e-14    1.57652e-14
    2200         4.4      99.954     3.39186    -844.806     316.069    -528.737    3.34177e-14   -4.10783e-15   -4.10783e-15
    2300         4.6     99.9827     2.99248     -850.47      316.16    -534.309    2.60347e-14    7.77156e-16    7.77156e-16
    2400         4.8     99.9191     6.23691    -855.138     315.959    -539.179     4.4173e-14   -1.23096e-14   -1.23096e-14
    2500           5     99.9549     10.1319    -853.142     316.072     -537.07    3.87468e-14    8.16014e-15    8.16014e-15
    2600         5.2     99.8326      7.1251    -853.549     315.686    -537.863    4.30767e-14    9.88098e-15    9.88098e-15
    2700         5.4     100.061     7.60565    -851.276     316.409    -534.867    4.92939e-14    1.64313e-14    1.64313e-14
    2800         5.6     100.022    0.805536    -860.257     316.285    -543.973    4.10783e-14   -2.63678e-15   -2.63678e-15
    2900         5.8     100.185    -4.07719     -858.37       316.8     -541.57    4.80727e-14   -1.40998e-14   -1.40998e-14
    3000           6     100.209    -11.9733    -862.629     316.877    -545.751    4.21885e-14    -1.4766e-14    -1.4766e-14
    3100         6.2     99.9808     23.3118    -829.616     316.154    -513.462    2.79776e-14   -2.12053e-14   -2.12053e-14
    3200         6.4      100.23     13.3163    -847.044     316.942    -530.102    1.40443e-14    1.63203e-14    1.63203e-14
    3300         6.6     99.9135   0.0169062    -858.615     315.941    -542.673    1.54321e-14    1.56541e-14    1.56541e-14
    3400         6.8      100.26     2.53346    -850.032     317.037    -532.996   -1.96509e-14    4.10783e-15    4.10783e-15
    3500           7     100.134    0.764262    -852.752     316.639    -536.113   -9.54792e-15   -5.77316e-15   -5.77316e-15
    3600         7.2     100.119    0.840431     -852.27     316.591    -535.679   -3.55271e-15   -1.46549e-14   -1.46549e-14
    3700         7.4     99.9867     8.89646    -849.288     316.173    -533.116   -4.44089e-15   -1.11022e-14   -1.11022e-14
    3800         7.6     100.024     2.34802    -846.467     316.292    -530.174    3.88578e-16   -4.88498e-15   -4.88498e-15
    3900         7.8     99.9133     3.91405    -836.834     315.941    -520.893    2.18714e-14   -1.39194e-14   -1.39194e-14
    4000           8     100.128     7.73563    -834.445      316.62    -517.825    1.88738e-14    1.27676e-15    1.27676e-15
    4100         8.2     99.8012     10.1465     -832.94     315.586    -517.354    8.21565e-15   -5.55112e-17   -5.55112e-17
    4200         8.4     100.183    -8.46216      -850.2     316.793    -533.407    1.64313e-14     1.4766e-14     1.4766e-14
    4300         8.6     99.8996    -13.7933    -860.415     315.898    -544.518    1.76525e-14   -6.99441e-15   -6.99441e-15
    4400         8.8     99.9656      14.378    -832.013     316.106    -515.907    6.33382e-14   -1.80966e-14   -1.80966e-14
    4500           9      100.18     16.3124     -832.22     316.786    -515.434    4.52971e-14   -1.62093e-14   -1.62093e-14
    4600         9.2     100.009     5.07183    -830.363     316.244     -514.12    4.75175e-14   -1.11022e-14   -1.11022e-14
    4700         9.4     100.057    -6.00318    -860.016     316.394    -543.622    1.57652e-14   -1.02141e-14   -1.02141e-14
    4800         9.6      100.08      8.5623    -830.249     316.469     -513.78    1.90958e-14   -2.16493e-14   -2.16493e-14
    4900         9.8     100.137    -16.9616    -848.112     316.647    -531.465     2.9754e-14   -1.33227e-14   -1.33227e-14
    5000          10     100.018    -2.29564    -844.173     316.272    -527.901    2.50008e-14   -3.61933e-14   -3.61933e-14
    5100        10.2     99.9902     6.27921    -841.016     316.184    -524.832    3.16969e-14   -6.12288e-14   -6.12288e-14
    5200        10.4     99.9214     1.46398    -853.801     315.966    -537.834    2.66454e-14   -5.79536e-14   -5.79536e-14
    5300        10.6     99.9237     -9.4557    -861.481     315.974    -545.507    2.44249e-14   -8.03801e-14   -8.03801e-14
    5400        10.8     100.205    -13.8251    -858.996     316.862    -542.134     5.9952e-15    -5.9841e-14    -5.9841e-14
    5500          11     100.002     14.6449    -832.146     316.221    -515.925    1.57652e-14   -7.28306e-14   -7.28306e-14
    5600        11.2     100.109    -2.16178    -852.293     316.559    -535.734    3.40838e-14   -8.68194e-14   -8.68194e-14
    5700        11.4     99.9743     5.28918     -847.13     316.134    -530.997    3.65263e-14   -1.04382e-13   -1.04382e-13
    5800        11.6     100.004      4.6187    -848.361     316.227    -532.134    4.86278e-14   -7.59393e-14   -7.59393e-14
    5900        11.8     99.8446    -9.04316    -861.082     315.724    -545.359    4.04121e-14   -7.01661e-14   -7.01661e-14
    6000          12     100.228     5.86727    -843.899     316.937    -526.962    4.61853e-14   -7.53841e-14   -7.53841e-14
    6100        12.2     99.7015    -2.37035     -850.75     315.271    -535.479    3.31957e-14   -7.89369e-14   -7.89369e-14
    6200        12.4     99.8373    -5.11575    -845.887       315.7    -530.187    2.03171e-14   -6.91669e-14   -6.91669e-14
    6300        12.6     100.131     6.82003    -827.736     316.628    -511.108    2.77556e-14   -5.06262e-14   -5.06262e-14
    6400        12.8     100.034    -13.4474      -857.1     316.321    -540.779    1.77636e-14   -4.59632e-14   -4.59632e-14
    6500          13     100.091     10.4849    -835.072     316.503    -518.569    1.36557e-14   -5.02931e-14   -5.02931e-14
    6600        13.2     100.091   -0.210227    -849.147     316.502    -532.645    3.33067e-14   -4.62963e-14   -4.62963e-14
    6700        13.4     99.9963     6.17308    -830.802     316.203    -514.599    4.70735e-14   -6.21725e-14   -6.21725e-14
    6800        13.6     99.9569    -6.69817    -847.591     316.079    -531.512     3.4639e-14   -4.90372e-14   -4.90372e-14
    6900        13.8     100.123     2.01008    -839.079     316.605    -522.474    2.22045e-14   -5.83977e-14   -5.83977e-14
    7000          14     99.8508    -7.70545     -851.46     315.743    -535.717    4.57412e-14   -5.92859e-14   -5.92859e-14
    7100        14.2     99.9756     -2.2702    -850.113     316.138    -533.975    5.39568e-14   -7.08322e-14   -7.08322e-14
    7200        14.4     100.006    -7.05389    -857.128     316.234    -540.894     4.4853e-14   -5.35127e-14   -5.35127e-14
    7300        14.6     100.035      2.7793    -846.551     316.325    -530.226     6.2006e-14   -4.59632e-14   -4.59632e-14
    7400        14.8       99.98   -0.635515    -845.513     316.152    -529.361    5.92859e-14   -3.30291e-14   -3.30291e-14
    7500          15      99.806    -4.58452    -851.815     315.602    -536.214     6.4948e-14   -2.93654e-14   -2.93654e-14
    7600        15.2     100.022     4.29216    -841.624     316.283    -525.341    7.54952e-14   -2.30926e-14   -2.30926e-14
    7700        15.4     99.9687    -2.40496    -854.303     316.116    -538.186    5.83977e-14   -6.66134e-15   -6.66134e-15
    7800        15.6     100.014    -5.15204    -860.529     316.258    -544.271    7.68274e-14    2.44249e-15    2.44249e-15
    7900        15.8     100.077     8.44751    -833.854     316.459    -517.395    6.52811e-14    9.82547e-15    9.82547e-15
    8000          16     100.147    -5.65617    -850.122      316.68    -533.443    4.61853e-14    1.70974e-14    1.70974e-14
    8100        16.2     100.015    -1.41919    -845.113     316.264     -528.85    5.61773e-14    2.92544e-14    2.92544e-14
    8200        16.4     99.9647     2.70508    -834.782     316.103    -518.678    3.61378e-14    2.79776e-14    2.79776e-14
    8300        16.6     99.9775    -3.68407    -846.402     316.144    -530.258    1.24067e-14    3.30291e-14    3.30291e-14
    8400        16.8     99.7779     6.18417    -843.184     315.513    -527.671    2.24265e-14    2.53131e-14    2.53131e-14
    8500          17     100.052     4.63868      -833.8     316.379    -517.421    1.29341e-14    4.79616e-14    4.79616e-14
    8600        17.2     100.105    -12.4797    -850.089     316.547    -533.542    3.23075e-14     3.9968e-14     3.9968e-14
    8700        17.4     99.8752    -11.7989    -849.928      315.82    -534.107    2.53131e-14    4.81837e-14    4.81837e-14
    8800        17.6     100.133    0.461026    -839.078     316.636    -522.443     3.9746e-14    6.20892e-14    6.20892e-14
    8900        17.8     99.9798     6.07977    -830.564     316.151    -514.413    4.08562e-14    6.03823e-14    6.03823e-14
    9000          18     100.003    -4.77254    -841.516     316.226     -525.29     3.9857e-14    4.69624e-14    4.69624e-14
    9100        18.2     100.032     1.01261    -845.315     316.316    -528.999    3.44169e-14    7.31637e-14    7.31637e-14
    9200        18.4     99.9318     4.91458    -842.881     315.999    -526.882     3.9746e-14    9.22595e-14    9.22595e-14
    9300        18.6     100.188    -5.09219    -857.852     316.811    -541.041    4.75731e-14    9.14824e-14    9.14824e-14
    9400        18.8     100.039     4.50664    -847.965     316.338    -531.627    6.29496e-14     7.4607e-14     7.4607e-14
    9500          19     100.061     -10.666    -866.592     316.409    -550.182    6.54476e-14    6.08402e-14    6.08402e-14
    9600        19.2     100.022     5.85415    -836.476     316.284    -520.192    7.82707e-14    5.86198e-14    5.86198e-14
    9700        19.4     99.9143     9.85489    -835.441     315.944    -519.497    6.93928e-14    4.61853e-14    4.61853e-14
    9800        19.6     99.8165     7.07644    -841.196     315.635    -525.562    7.18314e-14    4.00791e-14    4.00791e-14
    9900        19.8     100.028     -2.0769    -850.787     316.304    -534.483    5.35127e-14    3.05311e-14    3.05311e-14
   10000          20     100.075     -11.131    -850.053     316.452    -533.601    5.84463e-14    4.13003e-14    4.13003e-14
   10100        20.2     99.9605     1.36277    -839.856      316.09    -523.766    7.49401e-14    4.95715e-14    4.95715e-14
   10200        20.4     99.9135     2.43585    -844.576     315.941    -528.634    8.00471e-14    5.66491e-14    5.66491e-14
   10300        20.6     99.9423     2.76184    -846.387     316.033    -530.354    8.77076e-14    8.96505e-14    8.96505e-14
   10400        20.8     100.154     -2.3533    -854.926     316.702    -538.225     7.6994e-14    9.09273e-14    9.09273e-14
   10500          21      100.03     1.61186    -838.198      316.31    -521.888    7.79377e-14     7.7363e-14     7.7363e-14
   10600        21.2     99.9918    -1.78931    -850.539     316.189     -534.35    6.23945e-14    5.57887e-14    5.57887e-14
   10700        21.4      99.887     2.10255    -837.025     315.858    -521.167    7.43407e-14    5.21805e-14    5.21805e-14
   10800        21.6      100.07     6.07364    -841.655     316.438    -525.218     6.4726e-14    4.20775e-14    4.20775e-14
   10900        21.8      99.824     7.27744     -849.89     315.659    -534.231    7.75491e-14    3.79696e-14    3.79696e-14
   11000          22     99.8914     9.38097    -848.489     315.872    -532.617    7.92699e-14    4.79061e-14    4.79061e-14
   11100        22.2     100.348     1.12826    -852.062     317.316    -534.745    9.28146e-14    5.54001e-14    5.54001e-14
   11200        22.4     100.039      2.6105    -854.243     316.337    -537.906     9.4702e-14    5.35127e-14    5.35127e-14
   11300        22.6     99.9154     3.24969    -838.605     315.948    -522.657    7.82707e-14    8.28226e-14    8.28226e-14
   11400        22.8     100.121     -11.891    -855.259     316.597    -538.662     7.9825e-14    9.31477e-14    9.31477e-14
   11500          23     100.146     10.5827    -834.965     316.678    -518.287    1.03306e-13    1.12355e-13    1.12355e-13
   11600        23.2     100.084     9.97325    -845.805     316.479    -529.326    9.92539e-14     1.0747e-13     1.0747e-13
   11700        23.4      99.979    -4.80726    -854.857     316.149    -538.708    1.01918e-13    1.19904e-13    1.19904e-13
   11800        23.6     99.8164     4.50741    -837.406     315.634    -521.772    1.19016e-13    1.15963e-13    1.15963e-13
   11900        23.8     100.087    -4.40519    -853.613     316.491    -537.122     1.1946e-13     1.1724e-13     1.1724e-13
   12000          24     100.162    -11.7367    -865.362     316.728    -548.634    1.14575e-13    1.29452e-13    1.29452e-13
   12100        24.2     99.6462     4.41899    -842.612     315.096    -527.516     1.0944e-13    1.25677e-13    1.25677e-13
   12200        24.4     99.8696    -11.1465    -859.435     315.803    -543.632    1.03029e-13    1.16351e-13    1.16351e-13
   12300        24.6     100.018      4.6752    -845.256     316.271    -528.985    1.02585e-13    1.04305e-13    1.04305e-13
   12400        24.8     99.8311     3.27094    -847.078     315.681    -531.397    1.03445e-13    1.01169e-13    1.01169e-13
   12500          25     100.049     6.68341    -847.438     316.371    -531.067     1.0536e-13     1.0647e-13     1.0647e-13
   12600        25.2     100.171     7.01387     -843.51     316.757    -526.753    1.16018e-13     1.2601e-13     1.2601e-13
   12700        25.4     99.8056     14.0839    -824.228       315.6    -508.628    1.43996e-13    1.25969e-13    1.25969e-13
   12800        25.6     99.9786    -6.54189    -849.753     316.147    -533.606    1.53932e-13    1.03695e-13    1.03695e-13
   12900        25.8     100.051     9.31202    -841.616     316.375    -525.241    1.53322e-13     1.2601e-13     1.2601e-13
   13000          26     100.161     13.5462    -836.581     316.725    -519.856    1.42109e-13    1.36113e-13    1.36113e-13
   13100        26.2     100.157    -6.79371    -864.577     316.711    -547.866    1.56875e-13    1.29063e-13    1.29063e-13
   13200        26.4     99.9716     -9.3483     -867.17     316.125    -551.044    1.60538e-13    1.28564e-13    1.28564e-13
   13300        26.6     100.198      5.8146      -838.3     316.841    -521.459    1.69864e-13    1.19238e-13    1.19238e-13
   13400        26.8     100.143    -15.0697    -869.178     316.668    -552.511    1.58318e-13    1.05915e-13    1.05915e-13
   13500          27     99.9936     4.18509    -849.325     316.195     -533.13    1.53433e-13    1.26029e-13    1.26029e-13
   13600        27.2     100.121     6.95074    -837.671     316.597    -521.074    1.68976e-13    1.44551e-13    1.44551e-13
   13700        27.4     100.145      2.1584    -839.912     316.674    -523.239    1.45606e-13    1.14353e-13    1.14353e-13
   13800        27.6     99.8451    -1.81141    -844.172     315.725    -528.447    1.35059e-13    1.07359e-13    1.07359e-13
   13900        27.8     99.9773    -1.39458    -843.436     316.143    -527.293     1.4877e-13    1.05693e-13    1.05693e-13
   14000          28     99.9155     0.41394    -837.966     315.948    -522.019    1.47882e-13    9.54792e-14    9.54792e-14
   14100        28.2     100.116    -3.84342    -846.817      316.58    -530.236    1.21791e-13    8.83738e-14    8.83738e-14
   14200        28.4     99.8914    -7.99195    -863.305     315.872    -547.434    1.12244e-13    9.54792e-14    9.54792e-14
   14300        28.6     99.9623     14.7926    -829.537     316.096    -513.441    1.18239e-13     1.1402e-13     1.1402e-13
   14400        28.8     99.8812    -6.83271    -855.944     315.839    -540.104    1.30784e-13    1.23901e-13    1.23901e-13
   14500          29     99.8989   -0.152935    -854.003     315.895    -538.108    1.32394e-13    1.28786e-13    1.28786e-13
   14600        29.2     100.045     16.3274    -845.387     316.357     -529.03     1.4766e-13    1.32644e-13    1.32644e-13
   14700        29.4     99.9703    -2.52993    -868.212     316.121    -552.091    1.53599e-13    1.15422e-13    1.15422e-13
   14800        29.6     99.8483     2.50489    -858.243     315.735    -542.508    1.60316e-13    1.02376e-13    1.02376e-13
   14900        29.8     99.9274    0.179901    -849.528     315.985    -533.542    1.36335e-13     8.9373e-14     8.9373e-14
   15000          30     100.162     1.99004    -843.775     316.728    -527.046     1.4827e-13    9.68114e-14    9.68114e-14
   15100        30.2     100.003    -2.46752    -845.415     316.224    -529.192    1.41331e-13    1.03917e-13    1.03917e-13
   15200        30.4     100.139    -4.91735    -840.919     316.653    -524.266    1.37446e-13    8.99836e-14    8.99836e-14
   15300        30.6     100.101     6.86213    -832.351     316.534    -515.817    1.24567e-13    9.25926e-14    9.25926e-14
   15400        30.8      99.946    -10.4693    -848.644     316.044      -532.6    1.15019e-13    8.85958e-14    8.85958e-14
   15500          31     100.036    -8.61143    -848.872      316.33    -532.542     1.1724e-13     6.7446e-14     6.7446e-14
   15600        31.2     100.101     2.10221     -845.59     316.533    -529.057    1.32561e-13    5.86198e-14    5.86198e-14
   15700        31.4     99.8536    0.286585    -857.098     315.752    -541.346    1.16018e-13     7.9492e-14     7.9492e-14
   15800        31.6      100.05    -2.22016    -855.363     316.374     -538.99    1.31617e-13    9.53682e-14    9.53682e-14
   15900        31.8     99.9313    -3.30373    -855.843     315.998    -539.845    1.32394e-13    9.74776e-14    9.74776e-14
   16000          32         100     7.29221    -841.966     316.215    -525.751    1.51712e-13    9.79217e-14    9.79217e-14
   16100        32.2     100.135    -7.97686    -853.459     316.643    -536.816     1.5965e-13     6.9722e-14     6.9722e-14
   16200        32.4      100.04    -8.68389    -853.065     316.341    -536.724    1.49405e-13    6.50591e-14    6.50591e-14
   16300        32.6     100.013     1.43404    -854.793     316.255    -538.538    1.51434e-13    6.56142e-14    6.56142e-14
   16400        32.8     100.016    -18.1779    -883.801     316.265    -567.536    1.40332e-13    5.68434e-14    5.68434e-14
   16500          33     100.039    -3.57955    -867.489      316.34     -551.15    1.24734e-13    5.93969e-14    5.93969e-14
   16600        33.2     99.9994   -0.170681    -865.339     316.213    -549.126    1.00586e-13     6.4837e-14     6.4837e-14
   16700        33.4     99.9439      13.372    -852.083     316.038    -536.045    1.08136e-13     2.4647e-14     2.4647e-14
   16800        33.6     99.9669  0.00148722    -861.092      316.11    -544.982    9.85878e-14    2.77556e-14    2.77556e-14
   16900        33.8     100.009     -1.1185    -861.894     316.243    -545.651    9.07052e-14    3.68039e-14    3.68039e-14
   17000          34     99.8966     6.74139    -848.905     315.888    -533.016    8.32112e-14    1.75415e-14    1.75415e-14
   17100        34.2      99.998     2.79703    -846.659     316.209     -530.45    9.15934e-14    1.57097e-14    1.57097e-14
   17200        34.4     99.9194   -0.789075    -850.794      315.96    -534.834    8.40439e-14    2.14273e-14    2.14273e-14
   17300        34.6      100.11    -1.23324    -850.423     316.563     -533.86    7.83817e-14    2.16493e-14    2.16493e-14
   17400        34.8     99.7924     4.42455    -843.108     315.559     -527.55    8.62643e-14    3.68594e-14    3.68594e-14
   17500          35     100.056     2.50457    -846.346     316.391    -529.955     9.9587e-14    1.96509e-14    1.96509e-14
   17600        35.2     100.132     -2.6812    -854.561     316.632    -537.929     9.9587e-14    4.67404e-14    4.67404e-14
   17700        35.4     100.154    -1.38862    -850.807       316.7    -534.107    1.14807e-13    5.17364e-14    5.17364e-14
   17800        35.6     100.045     3.93139    -841.437     316.357     -525.08    1.23235e-13    5.90639e-14    5.90639e-14
   17900        35.8     100.074     4.95233    -836.844      316.45    -520.394    1.14131e-13    5.44009e-14    5.44009e-14
   18000          36     100.096    -6.29805    -854.028     316.519    -537.509    1.27343e-13    3.85803e-14    3.85803e-14
   18100        36.2     99.9882      7.7995     -832.44     316.178    -516.263    1.34781e-13    2.56462e-14    2.56462e-14
   18200        36.4     99.8555    -1.28564     -843.86     315.758    -528.102    1.32672e-13    2.78666e-14    2.78666e-14
   18300        36.6     99.9526    -12.2881    -873.116     316.065    -557.051    1.34448e-13    2.68674e-14    2.68674e-14
   18400        36.8     99.9859     6.15848     -851.52      316.17    -535.349    1.61871e-13    2.17604e-14    2.17604e-14
   18500          37     99.8352     3.28479    -843.329     315.694    -527.635    1.63869e-13    2.57572e-14    2.57572e-14
   18600        37.2     100.038     15.4514    -825.569     316.337    -509.232    1.70086e-13    2.14828e-14    2.14828e-14
   18700        37.4     100.161    0.564658    -848.274     316.723    -531.551    1.62759e-13    8.38218e-15    8.38218e-15
   18800        37.6     99.9506    -7.56286    -843.706     316.059    -527.648    1.57485e-13    3.88578e-15    3.88578e-15
   18900        37.8     99.8707    -3.03151    -844.446     315.806     -528.64    1.52878e-13    2.85189e-15    2.85189e-15
   19000          38     99.8304     8.44796    -825.049     315.679    -509.371    1.63647e-13     1.5099e-14     1.5099e-14
   19100        38.2     100.069    -1.57873    -843.097     316.435    -526.663    1.64757e-13    3.51941e-14    3.51941e-14
   19200        38.4     100.024     6.71343    -835.778      316.29    -519.487     1.7536e-13    3.09752e-14    3.09752e-14
   19300        38.6     100.024    0.134558    -843.842      316.29    -527.551    1.61537e-13    9.32587e-15    9.32587e-15
   19400        38.8     100.102    -3.96006    -855.867     316.536    -539.331    1.55431e-13   -2.72005e-15   -2.72005e-15
   19500          39     99.9033     8.52719    -849.109     315.909      -533.2    1.51323e-13   -1.35447e-14   -1.35447e-14
   19600        39.2     99.9354    0.533428    -862.174     316.011    -546.163     1.4444e-13   -1.11577e-14   -1.11577e-14
   19700        39.4     99.9972    -10.0213    -866.651     316.206    -550.445    1.56097e-13   -5.44009e-15   -5.44009e-15
   19800        39.6     99.9208    -7.38324    -857.801     315.965    -541.836    1.70447e-13   -3.41949e-14   -3.41949e-14
   19900        39.8     99.9197    -13.1116    -863.728     315.961    -547.767    1.64646e-13   -4.66294e-14   -4.66294e-14
   20000          40     100.099    -3.23446    -846.657     316.528    -530.129    1.73833e-13   -7.90479e-14   -7.90479e-14
   20100        40.2     99.9401     1.35462    -849.365     316.026    -533.339    1.91847e-13   -9.07052e-14   -9.07052e-14
   20200        40.4     100.005    -3.69125    -863.427     316.229    -547.198    2.10054e-13   -8.16569e-14   -8.16569e-14
   20300        40.6     100.141    -7.28427    -865.343     316.661    -548.682    2.31648e-13   -9.59649e-14   -9.59649e-14
   20400        40.8     99.8154     7.88763    -854.862     315.631    -539.231    2.38476e-13    -1.0969e-13    -1.0969e-13
   20500          41     100.059     3.52384     -861.72     316.403    -545.318    2.40252e-13   -1.11466e-13   -1.11466e-13
   20600        41.2         100     4.03577    -854.407     316.216    -538.191    2.42362e-13   -1.08608e-13   -1.08608e-13
   20700        41.4     100.025     4.90095    -848.805     316.295     -532.51    2.25153e-13    -9.9698e-14    -9.9698e-14
   20800        41.6      99.979     12.8517    -838.152     316.149    -522.003    2.12386e-13   -1.02363e-13   -1.02363e-13
   20900        41.8     100.029    -1.76426    -859.899     316.308    -543.591    2.05447e-13   -9.34253e-14   -9.34253e-14
   21000          42     99.9202    -4.75777    -861.109     315.963    -545.146    1.77414e-13      -6.95e-14      -6.95e-14
   21100        42.2     99.8768      7.4706    -842.362     315.825    -526.537     1.8674e-13    -3.9635e-14    -3.9635e-14
   21200        42.4     99.9489    -5.80664    -865.392     316.053    -549.339    1.93845e-13   -1.32672e-14   -1.32672e-14
   21300        42.6     99.9548     7.84016    -847.256     316.072    -531.184    2.08389e-13   -2.73115e-14   -2.73115e-14
   21400        42.8     99.9667    -6.75961    -853.706      316.11    -537.597    1.77747e-13     -7.821e-15     -7.821e-15
   21500          43     99.9923    -1.17883    -856.755     316.191    -540.564     1.6977e-13     5.9952e-15     5.9952e-15
   21600        43.2     99.9839     15.7137    -846.297     316.164    -530.133    1.86573e-13    1.06581e-14    1.06581e-14
   21700        43.4     99.9054      9.0281    -856.871     315.916    -540.955    1.77858e-13     4.0086e-14     4.0086e-14
   21800        43.6     100.057     7.89725    -841.901     316.394    -525.506    1.82743e-13    5.28466e-14    5.28466e-14
   21900        43.8     100.083    -2.12947    -841.737     316.477     -525.26    1.85962e-13    5.70169e-14    5.70169e-14
   22000          44     99.8003    -6.86727    -842.545     315.584    -526.961    1.77192e-13    5.16254e-14    5.16254e-14
   22100        44.2      99.943    -4.29056    -848.441     316.035    -532.406     1.8141e-13    3.90382e-14    3.90382e-14
   22200        44.4     100.116     3.72918    -840.058      316.58    -523.477    1.77081e-13    1.18794e-14    1.18794e-14
   22300        44.6     99.9478     11.1487     -837.73      316.05     -521.68    1.82188e-13    1.77636e-14    1.77636e-14
   22400        44.8     100.021     6.41067    -843.479     316.282    -527.197    1.75082e-13   -4.21885e-15   -4.21885e-15
   22500          45     99.9841    -12.5794    -862.252     316.165    -546.087    1.67866e-13    2.54796e-14    2.54796e-14
   22600        45.2     99.9424    -9.39108     -855.55     316.033    -539.518    1.60982e-13    9.76996e-15    9.76996e-15
   22700        45.4     100.217    -6.78492    -848.897     316.903    -531.995    1.63092e-13    5.77316e-15    5.77316e-15
   22800        45.6      100.05    0.562796    -844.479     316.374    -528.105    1.62287e-13    2.74225e-14    2.74225e-14
   22900        45.8     99.7898    -7.12687     -846.51      315.55    -530.959    1.47604e-13     3.9746e-14     3.9746e-14
   23000          46     100.185     -6.7361    -849.113     316.799    -532.314    1.32339e-13    5.40679e-14    5.40679e-14
   23100        46.2     99.9891     2.54375    -838.136     316.181    -521.955    1.38597e-13    5.57332e-14    5.57332e-14
   23200        46.4     100.102     4.26869    -837.329     316.537    -520.792    1.68088e-13    5.42899e-14    5.42899e-14
   23300        46.6     99.8711   -0.410952    -852.569     315.807    -536.762    1.53322e-13    7.41629e-14    7.41629e-14
   23400        46.8     99.9344     6.88981    -846.753     316.007    -530.745    1.52784e-13    7.70495e-14    7.70495e-14
   23500          47     99.9248     5.07067    -842.196     315.977    -526.218    1.49547e-13    6.11178e-14    6.11178e-14
   23600        47.2     100.057    -6.64375    -856.718     316.396    -540.323    1.56819e-13    8.01581e-14    8.01581e-14
   23700        47.4     99.9775     3.42639    -848.881     316.144    -532.738    1.34448e-13    7.07212e-14    7.07212e-14