       0           0         100    -13.5004           0     316.215     316.215   -8.43769e-15   -1.66533e-14   -1.66533e-14
     500           1     99.8176     63.3769    -1110.98     315.638    -795.341    5.88418e-15   -1.37668e-14   -1.37668e-14
    1000           2     100.046     62.0913    -1106.88      316.36    -790.523    5.19584e-14    1.06581e-14    1.06581e-14
    1500           3     99.8862     46.5913    -1126.57     315.855    -810.714    4.03011e-14    4.68514e-14    4.68514e-14
    2000           4     99.9828     75.0807    -1100.87     316.161    -784.705    5.86614e-14    6.27137e-14    6.27137e-14
    2500           5     100.188     61.5477    -1109.05     316.808    -792.243    1.86517e-14    8.40022e-14    8.40022e-14
    3000           6     100.188     58.0258    -1119.19     316.808    -802.382   -5.88418e-14     4.9849e-14     4.9849e-14
    3500           7     99.9285     63.9387    -1106.29     315.989      -790.3   -4.59632e-14    7.19425e-14    7.19425e-14
    4000           8     100.165     51.6379    -1122.96     316.738    -806.225   -5.02098e-14    5.88418e-14    5.88418e-14
    4500           9     99.9819     65.8164     -1108.6     316.158    -792.445   -5.10703e-14    3.71925e-14    3.71925e-14
    5000          10     99.9925     73.7941    -1090.59     316.191    -774.398   -6.78901e-14   -3.45279e-14   -3.45279e-14
    5500          11     100.062     44.9393    -1126.72      316.41    -810.314   -1.55431e-15    2.33702e-14    2.33702e-14
    6000          12      99.962     71.5479    -1097.09     316.095    -780.995   -3.31679e-15    4.26326e-14    4.26326e-14
    6500          13     100.081      61.842    -1105.59     316.472    -789.122   -1.22125e-14     2.9754e-14     2.9754e-14
    7000          14     99.9595     57.1724    -1114.96     316.087    -798.877    7.21645e-15    2.06501e-14    2.06501e-14
    7500          15     99.9863     83.3947    -1086.27     316.172    -770.094   -1.68754e-14    3.08087e-14    3.08087e-14
    8000          16     100.005      86.415    -1078.45     316.231     -762.22   -1.94011e-14   -1.75415e-14   -1.75415e-14
    8500          17     99.9884     59.8825    -1117.82     316.178    -801.643    -5.4956e-15   -1.86517e-14   -1.86517e-14
    9000          18     100.097     70.3553    -1096.39     316.522     -779.87   -1.83187e-14   -1.05693e-13   -1.05693e-13
    9500          19     99.9644     65.4784    -1109.34     316.102    -793.242   -3.21965e-14   -8.13932e-14   -8.13932e-14
   10000          20     100.105     46.8423    -1128.37     316.547    -811.825    -3.2585e-14   -8.99836e-14   -8.99836e-14
   10500          21     99.8415     69.1363    -1094.14     315.714    -778.429    3.21965e-15   -1.00586e-13   -1.00586e-13
   11000          22     100.097     56.1114    -1106.18      316.52    -789.658   -3.56382e-14   -7.70495e-14   -7.70495e-14
   11500          23     100.097     69.7029    -1091.68     316.523    -775.153   -2.45914e-14   -7.22755e-14   -7.22755e-14
   12000          24     99.9518     65.4895    -1097.83     316.063    -781.772   -2.58682e-14   -1.12799e-13   -1.12799e-13
   12500          25     99.9513     68.1091    -1097.23     316.061    -781.171    -1.9984e-15   -1.24012e-13   -1.24012e-13
   13000          26     99.9926     66.6148    -1101.15     316.192    -784.956   -3.26059e-14   -1.09079e-13   -1.09079e-13
   13500          27     99.9693     59.3819    -1117.37     316.118     -801.25    1.13243e-14     -8.199e-14     -8.199e-14
