       0             17.7958            -935.033
     100             21.3594            -928.092
     200             23.4856            -923.275
     300             25.2603            -921.032
     400             27.4131            -917.185
     500             27.4385            -917.648
     600             28.9368             -913.52
     700             26.3905             -913.87
     800             27.0821            -911.039
     900             26.2575             -911.98
    1000             26.8672            -911.701
    1100             25.1111            -913.077
    1200             25.4228            -912.676
    1300             26.3289            -912.613
    1400             26.9701            -910.981
    1500              26.363            -912.182
    1600             24.0652            -915.174
    1700             21.1746            -917.364
    1800             17.7432            -921.643
    1900             18.8988             -921.15
    2000              24.167            -913.954
    2100             24.3783            -912.302
    2200             30.0029             -902.58
    2300             33.2243            -897.951
    2400             32.1686            -898.834
    2500             31.9663             -899.76
    2600             29.8502            -903.026
    2700             28.0503            -903.234
    2800             26.8842            -904.634
    2900              28.235            -901.898
    3000             29.8248            -899.734
    3100             29.4826            -900.893
    3200             29.5322            -899.883
    3300             28.2182            -901.693
    3400              23.748            -907.374
    3500             23.4257            -906.985
    3600             20.2779            -910.502
    3700             20.4915            -910.433
    3800             20.9957            -908.356
    3900             21.9009            -904.703
    4000             19.6374            -906.888
    4100             21.6942            -901.902
    4200              25.555            -897.242
    4300             23.9467            -900.607
    4400             24.7298            -901.466
    4500             24.4914            -899.275
    4600              29.383            -889.917
    4700             24.7098            -898.741
    4800             22.1973            -904.041
    4900             24.5532            -900.669
    5000             28.6453            -893.966
    5100             29.8771            -890.769
    5200             30.2354            -889.544
    5300             26.0883            -896.617
    5400             24.2822            -898.779
    5500             26.2806            -897.344
    5600             24.9695            -898.244
    5700             23.0743            -899.817
    5800             24.0813            -898.057
    5900             22.5598            -898.537
    6000             24.2869              -895.5
    6100              24.661            -896.367
    6200             25.8765             -894.11
    6300             25.5887            -896.123
    6400             24.4024            -899.182
    6500             22.4986            -901.026
    6600             22.5068            -901.085
    6700             22.5777            -901.467
    6800             20.9766            -903.179
    6900             28.2515            -891.972
    7000             30.0896            -889.853
    7100             28.2919            -893.431
    7200             26.3142            -893.776
    7300             24.6694            -895.835
    7400             25.9497            -892.768
    7500             26.7471            -890.408
    7600             25.2802            -894.909
    7700             26.8317            -890.739
    7800             25.3035            -891.567
    7900             28.8716            -884.501
    8000             30.1152            -883.318
    8100             33.5568            -877.201
    8200             31.4212            -882.173
    8300             34.3647            -877.617
    8400             35.5924            -874.125
    8500             29.9717            -881.838
    8600             27.7221            -883.326
    8700             22.5989            -891.459
    8800             23.3511            -888.812
    8900              22.069            -891.213
    9000             26.2264            -886.268
    9100              30.164            -879.399
    9200              25.155            -885.324
    9300             29.4914            -877.861
    9400             29.7634            -879.662
    9500             29.6372            -880.772
    9600             30.2517            -882.042
    9700             30.5593            -880.282
    9800             28.4521            -883.014
    9900             31.4243            -879.219
   10000             32.7347            -876.592
   10100             32.2378            -873.477
   10200             29.0998            -875.955
   10300             29.9017             -874.16
   10400             28.4769            -876.237
   10500             27.3396            -878.116
   10600             27.7696            -879.881
   10700             29.6994            -878.454
   10800             31.7682            -874.629
   10900             29.2448            -877.772
   11000             31.3468            -875.266
   11100             32.6163            -874.083
   11200             32.3267            -872.735
   11300             36.1951            -866.082
   11400             33.6305            -870.924
   11500             33.0975            -871.395
   11600               28.97            -876.732
   11700             28.9183            -877.548
   11800             29.9659             -875.61
   11900              28.711             -876.82
   12000             29.0423            -877.106
   12100             33.1983            -870.174
   12200             29.2911            -875.939
   12300             30.4344            -872.961
   12400              28.844            -872.477
   12500             30.1317            -870.777
   12600             32.4171            -866.962
   12700             35.1052             -864.45
   12800             30.0678            -871.903
   12900             28.4638            -877.512
   13000             29.3739            -875.425
   13100             31.5148            -872.264
   13200             29.9513            -874.262
   13300             30.4472            -873.346
   13400             36.0885            -863.353
   13500             35.0011            -865.056
   13600             33.9074            -866.717
   13700             32.1952            -868.966
   13800             30.2122             -871.53
   13900             26.2592            -877.326
   14000             27.6614            -873.997
   14100             27.9989            -875.335
   14200             28.7385            -873.984
   14300             29.1598            -875.246
   14400             27.7202            -877.339
   14500             27.8163            -873.869
   14600             27.4433            -875.172
   14700             26.8651            -875.624
   14800              29.693            -872.845
   14900             28.1105             -876.56
   15000             28.8858             -875.93
   15100             28.2089            -874.767
   15200             26.6593            -878.046
   15300             26.7502                -879
   15400             27.9927            -878.194
   15500             29.3144            -875.661
   15600             29.5992            -871.713
   15700             27.4722            -877.179
   15800             27.9829            -876.432
   15900              25.122            -879.874
   16000             25.2949            -880.462
   16100             24.4044            -881.105
   16200             23.5117            -885.345
   16300               23.61            -883.983
   16400             23.3885            -883.751
   16500              29.492            -873.988
   16600             24.9071            -881.769
   16700             26.3241            -877.441
   16800             27.3441            -874.885
   16900             26.1038            -877.485
   17000             26.1106            -875.643
   17100             23.2288            -878.704
   17200             25.0781            -874.312
   17300             24.4125             -877.84
   17400             22.9195            -880.351
   17500             23.8075            -879.151
   17600              25.432            -877.441
   17700             24.9088            -875.605
   17800             25.0822            -872.956
   17900             23.2282            -876.422
   18000             25.3957            -872.471
   18100             25.0313             -870.72
   18200             25.4957            -873.026
   18300             23.1826            -876.236
   18400             25.7237            -872.277
   18500             21.9247            -877.755
   18600             20.6528            -880.493
   18700             20.8505            -879.535
   18800             21.7971            -877.912
   18900             22.2412            -876.009
   19000             21.4257              -875.7
   19100             19.4756             -878.54
   19200             22.0707            -874.012
   19300              23.903            -871.632
   19400             26.1569            -866.366
   19500             27.0889            -865.973
   19600             28.3846            -866.151
   19700             26.5612             -865.98
   19800             23.2902            -869.922
   19900             22.5838            -872.812
   20000             23.3856            -869.422
   20100             24.8426            -868.182
   20200             25.6915            -867.859
   20300             25.6674            -866.993
   20400             25.8316            -866.648
   20500             25.0939            -868.011
   20600             23.6081            -871.504
   20700             24.3585             -867.61
   20800             24.2858            -867.033
   20900             25.2856            -863.943
   21000             26.8615            -864.022
   21100             28.7045            -861.735
   21200              28.076            -862.918
   21300             29.8788            -857.736
   21400             31.4777            -854.208
   21500             30.3664            -855.823
   21600             30.3651            -856.549
   21700              30.233            -855.145
   21800              29.802            -855.216
   21900              28.564            -858.201
   22000             28.5425            -857.209
   22100             30.3826            -853.489
   22200             28.8581            -854.338
   22300             26.7665            -853.788
   22400             26.6886            -856.155
   22500             28.3631            -854.591
   22600             28.0088            -856.372
   22700             28.7242             -856.22
   22800             30.3077            -853.865
   22900             30.0197            -854.041
   23000             34.0829            -847.425
   23100             39.6433            -838.019
   23200             33.0196            -848.829
   23300             33.1036            -847.926
   23400              34.014            -845.988
   23500              34.002            -845.202
   23600             36.7629            -843.085
   23700             34.9966            -847.718
   23800             31.8188            -851.867
   23900             35.1304            -845.015
   24000             38.1825            -841.211
   24100              38.755             -839.07
   24200             36.4651            -842.367
   24300             30.9667            -853.149
   24400             33.9416            -847.679
   24500             31.3291            -851.467
   24600             34.6109            -846.878
   24700             30.2207            -853.432
   24800             27.1967            -857.682
   24900              27.845            -858.376
   25000             21.8111            -867.826
   25100             16.8179            -875.973
   25200             16.1488             -875.62
   25300             16.9224            -874.373
   25400             17.8492            -871.737
   25500             18.9968            -869.133
   25600             18.0813            -872.627
   25700             22.5411            -865.917
   25800             20.0935             -870.55
   25900             19.2789            -871.147
   26000             20.0962            -868.489
   26100             17.9517            -870.241
   26200             14.4401             -874.75
   26300             15.5474            -873.074
   26400             14.9106            -876.653
   26500             16.3987            -873.693
   26600             17.4439            -869.963
   26700              13.708            -873.086
   26800             15.9459            -869.727
   26900             15.2602            -874.011
   27000             15.8818            -873.826
   27100             15.0865            -874.735
   27200             18.1994             -869.78
   27300             16.7576            -872.487
   27400              18.594            -865.459
   27500             18.2241            -865.304
   27600             16.9317            -866.945
   27700             14.6256            -869.853
   27800             12.8355            -871.379
   27900             13.8819            -868.851
   28000              13.274            -867.852
   28100             16.5332            -861.948
   28200             18.9637            -860.207
   28300             16.9649            -865.335
   28400             19.9285            -862.104
   28500             21.8238            -859.942
   28600             23.7979            -854.015
   28700             22.2169            -854.513
   28800             17.5256            -861.947
   28900             16.9504            -864.074
   29000              14.849            -868.432
   29100             11.4808            -873.355
   29200             11.3395            -874.692
   29300             10.2516            -875.801
   29400             10.5684            -875.305
   29500             13.0301            -871.658
   29600             11.8178            -872.993
   29700              14.539            -869.672
   29800             13.2446             -871.24
   29900             17.4557            -865.073
   30000             19.0289            -862.901
   30100              18.973            -859.815
   30200             16.6676            -860.459
   30300             10.9609            -869.106
   30400              10.653             -869.95
   30500             7.79357            -872.526
   30600             10.2909             -870.01
   30700             9.04926            -873.642
   30800             10.4128            -871.191
   30900             12.3086            -869.162
   31000              14.901            -864.773
   31100             11.0812            -869.776
   31200             8.20453            -871.412
   31300             11.0017            -867.063
   31400             11.2626             -865.46
   31500             8.16396            -870.797
   31600             10.9961            -865.305
   31700              11.876            -863.601
   31800             11.1468            -864.126
   31900             8.03141            -869.228
   32000             7.99457            -870.393
   32100             6.62771            -872.302
   32200             3.03037            -877.952
   32300             4.03474            -875.716
   32400             4.03888            -876.501
   32500              4.5039            -875.507
   32600             4.85859            -874.134
   32700             4.94936            -876.378
   32800             5.84179            -875.569
   32900             2.70819            -880.273
   33000             4.92576            -876.717
   33100             2.17536            -877.694
   33200            0.964359            -880.796
   33300           -0.811494            -883.103
   33400             -1.5821            -884.625
   33500           0.0559155            -883.989
   33600             2.48957            -879.308
   33700             4.14425            -877.331
   33800              4.3812            -877.335
   33900             5.77039            -874.163
   34000             6.45846            -873.547
   34100             7.61602            -872.031
   34200             4.87687            -875.704
   34300             3.55578            -878.106
   34400             5.24479            -873.183
   34500             3.27163            -876.141
   34600             7.16117            -873.342
   34700             9.86043            -869.335
   34800             11.7096             -865.23
   34900             11.9166            -866.062
   35000             14.8487            -860.873
   35100             10.2126            -867.943
   35200             7.19639            -872.393
   35300              9.1443            -868.202
   35400             12.4425             -863.07
   35500             10.2405              -865.7
   35600             8.35511            -868.344
   35700             12.1309            -862.065
   35800             13.2277            -860.867
   35900              13.703            -860.459
   36000             15.9307            -855.218
   36100             17.0544            -851.977
   36200             17.0299            -850.488
   36300              15.109            -855.197
   36400             11.8107            -861.048
   36500             11.4724            -861.591
   36600             8.41858            -865.296
   36700             8.69741            -864.133
   36800              10.064            -860.782
   36900             8.54971            -864.932
   37000             10.0466            -863.628
   37100             6.49809            -871.169
   37200             6.44989            -870.798
   37300             8.11767            -868.695
   37400             7.96272            -868.845
   37500             10.3466            -864.836
   37600             9.88459            -865.061
   37700             8.48949              -868.6
   37800             8.87813            -867.458
   37900             5.42861            -873.298
   38000             6.91356            -868.146
   38100             8.37853            -865.984
   38200             5.88043            -868.768
   38300             6.30216            -869.156
   38400             6.95042            -865.041
   38500             10.4131             -862.17
   38600             7.12818            -866.585
   38700             5.43281            -870.449
   38800             3.81268            -871.953
   38900             1.14859            -878.412
   39000             5.79292            -870.816
   39100              4.3761            -873.315
   39200             5.18765            -872.215
   39300             3.32226            -873.861
   39400             1.50999            -877.929
   39500             1.62334            -878.135
   39600           -0.139661             -882.48
   39700            0.828539            -880.246
   39800            0.183799             -880.11
   39900             4.25106            -874.145
   40000             7.63152            -868.392
   40100             10.7369            -862.204
   40200             8.86353            -867.621
   40300             9.41914            -867.907
   40400             5.28208            -873.464
   40500             2.65504            -879.025
   40600            0.580672             -883.25
   40700             1.84984            -879.706
   40800           -0.651794            -883.511
   40900           -0.589228            -881.841
   41000             1.97964            -875.375
   41100            0.637487            -878.637
   41200             4.08791            -873.797
   41300             3.00758             -872.85
   41400           -0.280641            -877.804
   41500             2.84494            -873.735
   41600             2.64137             -871.89
   41700             7.13512            -865.326
   41800              8.8651            -863.038
   41900             8.29073            -862.813
   42000             10.1553            -861.314
   42100             9.96736            -862.048
   42200             7.26532            -866.759
   42300             7.94733            -865.761
   42400             7.90376            -866.154
   42500             6.83884            -868.192
   42600             2.69336            -874.794
   42700             3.47594            -871.719
   42800             9.75751            -861.134
   42900             9.25957            -863.393
   43000              6.2931            -868.815
   43100             4.58386            -870.383
   43200             4.54269            -871.345
   43300             7.56246            -866.125
   43400             7.69293            -866.901
   43500             6.94385            -867.407
   43600             8.17993            -863.998
   43700             3.22288            -871.935
   43800             2.20015            -873.536
   43900             1.51492            -877.667
   44000           -0.564905            -880.106
   44100            -1.26209            -880.372
   44200            -6.33026            -889.921
   44300            -3.98486            -884.513
   44400            -6.12387            -886.309
   44500            -6.53148            -886.671
   44600            -6.44134            -885.679
   44700            -7.70673            -889.366
   44800            -7.18034            -888.403
   44900            -7.66725            -887.431
   45000            -9.08664             -889.57
   45100            -7.25771            -887.052
   45200            -7.48804            -886.908
   45300            -8.23446            -885.282
   45400             -11.884            -889.411
   45500            -11.7815            -888.892
   45600            -8.95544            -883.958
   45700            -6.25726            -880.018
   45800             -7.5236            -880.339
   45900            -6.63855            -877.698
   46000            -7.29072            -877.738
   46100            -8.53998            -879.276
   46200            -12.9734            -885.722
   46300            -12.2325            -883.277
   46400            -12.2583            -883.876
   46500            -13.0104            -884.498
   46600             -15.309             -886.62
   46700            -16.5005            -888.316
   46800            -14.4213            -885.178
   46900            -15.8167            -886.277
   47000            -11.0407            -878.084
   47100            -10.8807            -878.916
   47200            -12.4866            -881.879
   47300             -11.886            -880.337
   47400            -11.6984             -879.24
   47500            -7.37192            -871.308
   47600            -9.28766            -872.517
   47700            -8.19582            -869.981
   47800            -9.42289            -872.912
   47900            -5.78413            -867.235
   48000              -2.375            -860.342
   48100            -3.57565            -861.856
   48200            -4.60918            -864.463
   48300            -6.21177            -867.233
   48400            -4.55841            -865.313
   48500            -2.98352             -862.27
   48600            -3.53299             -863.51
   48700            -3.47272            -863.434
   48800             -3.2008            -862.666
   48900            -4.13921            -862.924
   49000            -3.89827            -862.852
   49100            -6.11242            -864.935
   49200            -2.75747             -859.87
   49300            -2.97995            -860.809
   49400            -1.06561            -857.724
   49500             1.11968            -854.689
   49600           -0.446357            -857.989
   49700            -1.23628             -859.91
   49800          -0.0334466            -857.697
   49900             1.14754            -856.052
   50000            -1.97551            -861.356
   50100            -1.92226            -862.254
   50200            0.670303             -858.54
   50300             2.09505            -855.509
   50400             5.23342            -850.203
   50500             4.84209            -852.012
   50600             2.75272            -855.532
   50700             3.88253            -853.373
   50800             1.78058            -856.463
   50900             1.61092            -855.457
   51000          -0.0598432            -857.884
   51100             1.36961            -854.485
   51200            0.457205            -855.707
   51300            0.815895             -855.51
   51400            -1.23719            -860.922
   51500            -1.47991              -861.3
   51600           -0.581387            -860.698
   51700            -4.90556            -865.769
   51800            -4.49152            -866.046
   51900            -5.13629            -866.967
   52000           0.0636704            -858.723
   52100             1.08538            -855.412
   52200             1.94958            -854.963
   52300            -1.35136            -861.915
   52400            0.237835            -860.829
   52500           -0.712901            -862.709
   52600           -0.972875            -863.623
   52700             1.64177            -861.975
   52800            0.387779            -863.247
   52900          0.00661805             -863.57
   53000            -4.42365            -869.841
   53100            -6.95191            -873.249
   53200            -10.7263            -882.192
   53300            -12.1126            -883.287
   53400             -11.349            -879.569
   53500            -9.98175            -876.095
   53600             -9.2789             -874.64
   53700            -8.64551            -874.002
   53800              -9.189             -874.71
   53900             -8.4843            -874.164
   54000            -11.9194            -880.296
   54100            -9.09888            -874.718
   54200            -12.1905            -880.913
   54300            -9.03386             -877.37
   54400            -6.72969            -874.364
   54500            -2.13258            -865.972
   54600            0.704829            -862.041
   54700            0.150963            -861.969
   54800             2.16984            -858.956
   54900             5.49378            -853.374
   55000             6.98882             -850.51
   55100             5.00552             -854.19
   55200             4.87046            -855.941
   55300             6.44177            -853.383
   55400             7.96262            -852.006
   55500             8.29493            -850.863
   55600             6.30303            -856.903
   55700             7.71824            -854.098
   55800             5.94122            -857.745
   55900             7.83519            -853.974
   56000             8.45963            -852.542
   56100             9.69101            -851.319
   56200             9.55674            -850.142
   56300             10.6361             -848.71
   56400             10.2309            -850.943
   56500             11.4684            -848.887
   56600               7.443            -854.593
   56700             6.04727            -856.838
   56800              8.9166            -852.567
   56900             10.7292            -849.447
   57000             9.98317            -848.234
   57100             12.1929            -844.112
   57200             12.7704            -842.463
   57300             12.7789            -841.934
   57400             10.2039            -847.435
   57500              12.855            -843.902
   57600             17.7863            -834.595
   57700             15.0725            -838.381
   57800              12.175            -842.871
   57900             15.3674            -837.632
   58000             13.7706              -841.8
   58100             12.1842            -847.046
   58200             11.3916            -846.944
   58300              7.8558            -853.579
   58400             7.99632            -854.073
   58500             5.71744            -858.811
   58600             6.31529            -857.675
   58700              9.1201            -853.393
   58800             6.85303            -857.492
   58900             8.19911            -857.674
   59000             9.05265            -856.015
   59100             6.96466            -857.757
   59200              9.5255            -855.721
   59300             9.89353            -854.376
   59400             13.1668            -850.601
   59500             13.2171            -850.049
   59600             12.7443             -850.21
   59700             12.4703            -849.997
   59800             10.2892             -853.09
   59900             5.47144            -860.803
   60000             6.66337             -856.91
   60100             7.42749            -857.131
   60200             7.07781            -856.081
   60300             6.33516            -857.978
   60400              4.6059            -859.882
   60500             4.31816            -859.339
   60600             3.84655            -859.853
   60700             5.34422            -857.625
   60800             7.33987            -855.396
   60900             6.43053            -855.505
   61000             9.32433            -850.353
   61100             13.0399            -844.345