       0             17.7964            -935.301
     100              17.938            -930.374
     200             18.0462            -930.326
     300             16.5391            -930.686
     400             20.7633            -925.174
     500             20.4293            -926.137
     600             24.5402            -917.667
     700             23.5677            -917.908
     800             21.0601            -923.175
     900             20.5167            -923.805
    1000               18.68            -925.951
    1100             19.6127            -923.125
    1200              18.124            -924.124
    1300             17.6641            -923.017
    1400             18.9546            -919.789
    1500             20.3493            -918.243
    1600             19.2418            -919.244
    1700             20.8586            -915.695
    1800              20.734            -917.261
    1900             20.8566            -914.913
    2000             19.2581            -916.997
    2100             18.9914            -915.089
    2200             22.2073            -909.118
    2300               22.74            -907.169
    2400             24.2119            -906.891
    2500             24.5627            -905.925
    2600             23.4979            -908.156
    2700             26.7786            -902.466
    2800             28.8924            -896.827
    2900             27.3393            -898.688
    3000             26.3602            -900.148
    3100             24.8861            -904.661
    3200              23.507            -905.405
    3300             19.3046            -908.276
    3400              19.546            -907.412
    3500             20.9385             -906.41
    3600             22.2902            -903.603
    3700             20.0175            -907.593
    3800             21.2973            -904.224
    3900             18.5544            -907.495
    4000             20.2575            -903.522
    4100             20.3603             -903.96
    4200             17.3258            -905.471
    4300             21.0107            -898.517
    4400             19.5907            -898.222
    4500              16.307            -903.072
    4600             17.6064             -900.31
    4700             17.2685            -901.022
    4800              16.433            -902.973
    4900             16.8984             -902.31
    5000             15.0161            -904.104
    5100             11.6797            -910.043
    5200             12.7016            -908.678
    5300             12.4156            -908.285
    5400             16.8568            -901.395
    5500             15.7007            -903.421
    5600             16.9283            -899.898
    5700             19.8549            -895.535
    5800             17.7477             -897.62
    5900             17.1783            -897.417
    6000             17.1039            -897.107
    6100             14.5214            -897.342
    6200             15.1282            -898.311
    6300             18.3612            -891.478
    6400             18.7944            -889.288
    6500              19.468             -887.97
    6600             19.6867            -888.085
    6700             17.4312            -890.978
    6800             20.0442            -886.152
    6900             20.4117            -884.344
    7000             19.9894            -886.421
    7100             21.7685             -883.86
    7200              20.985            -883.925
    7300             24.2053            -880.442
    7400             24.4096            -880.656
    7500             23.7047            -881.845
    7600             23.6319            -884.113
    7700             20.6584            -888.575
    7800             24.3274            -883.739
    7900             26.8826            -879.976
    8000             26.2894            -882.386
    8100             23.2329            -884.802
    8200             24.7156            -882.018
    8300             25.8427            -878.769
    8400             24.9278            -880.436
    8500             23.6909             -880.86
    8600             21.9097            -882.165
    8700              21.785            -881.648
    8800             20.3058            -884.638
    8900             20.2501            -883.979
    9000             22.5615            -878.811
    9100             23.1067            -877.726
    9200              22.276            -878.183
    9300             22.4719            -877.223
    9400             25.4391            -870.804
    9500             24.0814            -872.761
    9600             23.1922            -871.072
    9700             24.3201            -872.413
    9800             22.5534            -874.359
    9900             21.6797            -874.993
   10000             24.4914            -869.854
   10100             26.7396            -868.717
   10200             27.2307            -869.433
   10300             28.3212            -868.854
   10400             24.6253             -875.07
   10500             25.6718            -874.885
   10600              27.929            -871.028
   10700             25.2696            -876.102
   10800             25.9955            -874.511
   10900             26.0528            -873.555
   11000             31.2953            -868.079
   11100             30.3263            -869.389
   11200             27.1969            -870.648
   11300             27.2845            -870.859
   11400             23.6983            -876.207
   11500             16.7472             -887.77
   11600             16.0424            -890.764
   11700             18.2477            -885.981
   11800             17.2879            -887.477
   11900             17.3843            -887.556
   12000             16.9248            -887.548
   12100             18.4102            -885.931
   12200             20.1735            -884.481
   12300             18.8393            -888.298
   12400             22.4968            -883.092
   12500             23.9995            -882.295
   12600              25.593            -880.143
   12700             26.9183             -877.63
   12800             26.4133            -878.167
   12900             27.2614            -875.662
   13000             26.2748            -879.449
   13100             23.1071            -885.742
   13200             20.3878            -888.392
   13300             17.3809             -892.92
   13400             15.7979            -896.044
   13500             15.1108            -897.096
   13600             16.4299              -894.2
   13700             14.5523            -896.647
   13800             14.4845             -897.74
   13900             11.4519             -901.89
   14000             10.5877            -901.329
   14100             13.2751            -895.429
   14200             14.5009            -894.304
   14300             15.7619            -892.168
   14400             14.8229            -890.412
   14500             15.6912            -887.987
   14600             17.6127            -884.111
   14700             13.3822            -890.058
   14800             14.7295            -888.588
   14900             12.1482            -890.447
   15000             11.2292            -890.656
   15100             11.5461            -890.022
   15200             10.6309            -892.287
   15300             14.6066            -884.188
   15400             14.5382            -883.503
   15500             15.8829            -882.659
   15600             13.0481            -888.248
   15700             16.8916            -882.981
   15800             12.3523            -890.373
   15900              14.606            -885.337
   16000             12.9726            -888.235
   16100             12.0162            -889.707
   16200              13.096            -888.361
   16300             16.2041            -883.566
   16400             18.3479            -879.081
   16500             18.6031            -876.812
   16600             20.5403            -873.633
   16700             20.2754            -873.642
   16800             19.4957            -876.078
   16900             18.0437            -873.519
   17000              19.106            -870.339
   17100             18.9215            -870.132
   17200             17.4241            -870.774
   17300             17.3388            -870.199
   17400             14.4393            -876.242
   17500             14.1757            -878.546
   17600              13.693            -880.926
   17700             15.7886            -875.167
   17800             18.7281            -870.074
   17900             17.2382            -870.157
   18000             19.8443            -866.058
   18100             17.2488             -869.42
   18200             18.5593            -866.115
   18300              16.054            -868.322
   18400             15.6991            -868.904
   18500              15.124            -866.503
   18600             14.3027             -866.84
   18700             13.7405            -868.089
   18800             12.2319            -871.277
   18900             9.52481            -875.429
   19000             12.4268              -871.1
   19100             11.9565            -872.361
   19200             11.6099            -874.114
   19300             8.57043            -879.343
   19400             9.97712            -878.097
   19500             12.1235            -873.948
   19600             10.3291            -878.173
   19700             11.1123            -876.658
   19800             13.5452            -873.088
   19900             12.1484            -875.473
   20000             13.3773            -874.802
   20100             12.2917            -874.969
   20200             13.6618            -873.801
   20300             14.2615            -871.462
   20400             12.8844            -872.107
   20500             11.0465            -874.035
   20600             10.0736            -873.911
   20700             11.3548            -872.235
   20800             11.2052             -873.21
   20900             12.5355            -868.567
   21000             9.24103            -874.203
   21100              9.3942            -873.133
   21200             4.46742            -879.764
   21300             7.68256             -874.85
   21400             5.61389            -876.986
   21500             11.6502            -868.293
   21600             10.5855            -869.384
   21700             6.45836              -875.8
   21800             6.18795            -877.104
   21900             5.85943            -876.179
   22000             7.53005            -873.071
   22100             6.87745            -873.735
   22200             10.0792            -868.357
   22300             13.1553            -863.519
   22400              14.115            -861.697
   22500             14.7196            -860.799
   22600             15.9891            -860.242
   22700             13.2335            -866.554
   22800             16.1818            -863.391
   22900             15.8552             -865.24
   23000             12.6701            -870.776
   23100             11.2824            -873.668
   23200             10.7144            -874.952
   23300             13.7944            -872.034
   23400             16.8811            -867.124
   23500             16.0036            -869.842
   23600             17.5396            -865.832
   23700             20.1651            -863.071
   23800             17.1415            -866.167
   23900             14.0348            -871.448
   24000             12.8934            -873.486
   24100             11.7566            -874.083
   24200             15.4807            -866.416
   24300             12.7506            -869.869
   24400             15.9068            -862.088
   24500             14.1711            -863.949
   24600             12.7557            -867.614
   24700              12.634            -867.106
   24800             10.5419            -868.991
   24900             9.67897            -870.722
   25000             8.26496            -871.374
   25100              11.304            -867.977
   25200             8.62561            -872.907
   25300             6.51192            -876.135
   25400             8.63771            -872.807
   25500              8.2174            -871.583
   25600             7.12874             -872.09
   25700             9.69134            -867.826
   25800              11.795            -865.167
   25900             12.2019            -864.137
   26000             12.6217            -865.494
   26100             11.6137            -867.034
   26200             7.30763            -871.987
   26300             7.68509            -873.049
   26400             6.87783            -874.515
   26500             8.14875            -873.053
   26600             10.9656            -867.844
   26700             9.47524            -871.323
   26800             10.8831            -866.702
   26900             13.0938            -863.893
   27000             13.0636            -863.074
   27100             14.8069            -861.137
   27200             14.9076            -861.472
   27300             15.4092            -859.221
   27400             20.9606            -849.649
   27500             17.8986            -853.759
   27600             19.1428            -853.252
   27700             21.2532            -848.843
   27800             15.9571            -858.784
   27900             13.5104             -862.67
   28000             16.0848            -858.185
   28100             16.3912            -856.304
   28200             12.2811            -861.978
   28300             15.8175            -858.641
   28400             17.2208            -858.354
   28500             17.7871            -856.092
   28600             14.6031            -860.767
   28700              14.367            -862.587
   28800             13.8729            -865.193
   28900             14.1232            -864.481
   29000             11.1791            -868.115
   29100             11.6631            -866.447
   29200             11.1924            -865.318
   29300             8.66146            -869.262
   29400             13.1195            -862.101
   29500             10.7026             -865.35
   29600             8.76535            -867.045
   29700             10.3199            -860.427
   29800             9.71636            -862.411
   29900             8.53477            -865.713
   30000             6.15345            -867.885
   30100             4.74083            -871.012
   30200             4.87038            -871.533
   30300             6.95129            -868.485
   30400             7.70013            -867.781
   30500             9.78413            -861.426
   30600             7.80865            -862.867
   30700             10.1691            -860.906
   30800             10.8919            -858.575
   30900              6.6031            -863.706
   31000             5.79738            -866.591
   31100              4.5414            -867.054
   31200             7.38033            -861.292
   31300             9.93493            -856.648
   31400             9.23468            -858.551
   31500              6.5691            -863.716
   31600             3.40446            -867.093
   31700             5.10293            -864.542
   31800             3.45438            -866.874
   31900             6.75811            -860.889
   32000              5.8871            -862.843
   32100             2.42756            -867.846
   32200            0.746341            -872.614
   32300          -0.0550015            -874.226
   32400            -2.40079            -878.417
   32500            -2.64941            -878.728
   32600            -3.00162            -878.028
   32700            -5.47176            -884.852
   32800            -5.30316            -883.083
   32900             -3.9045            -880.827
   33000            -5.59849            -882.711
   33100            -6.28048            -881.031
   33200            -7.17358            -881.122
   33300            -8.07773            -881.584
   33400            -7.76065             -880.87
   33500            -5.75301            -875.564
   33600            -6.09255            -876.085
   33700            -4.38733             -875.26
   33800            -5.44695             -875.85
   33900            -4.71223            -875.159
   34000            -8.27349            -879.894
   34100            -7.42001            -879.148
   34200            -6.93377            -877.475
   34300            -8.59838            -880.556
   34400            -7.55006            -878.136
   34500             -5.6898             -876.02
   34600            -8.00499            -879.908
   34700            -7.67193            -878.373
   34800            -5.99627            -874.626
   34900            -5.05187            -872.818
   35000            -5.29559            -872.837
   35100            -7.60874            -877.569
   35200            -8.88021            -878.635
   35300            -7.04039            -875.528
   35400             -7.7302            -875.131
   35500            -4.51886            -871.119
   35600            -5.46167            -872.363
   35700             -9.4169            -878.922
   35800            -10.1711            -879.369
   35900            -8.18576            -874.787
   36000            -11.9038            -880.501
   36100            -9.88836            -878.904
   36200            -7.66632            -876.378
   36300            -9.07494            -879.004
   36400            -10.2775            -879.752
   36500            -13.2607             -883.33
   36600            -10.6737            -879.902
   36700            -15.4134            -886.941
   36800            -18.4622            -890.209
   36900            -16.7562            -887.542
   37000            -14.9024            -884.205
   37100            -16.2528            -885.081
   37200            -16.9336            -884.972
   37300            -13.7898            -880.702
   37400            -15.4539            -882.916
   37500            -16.7652             -885.82
   37600            -12.8909            -879.598
   37700            -16.5337            -886.301
   37800            -14.3957            -883.327
   37900            -14.9701            -885.383
   38000             -13.379            -882.966
   38100            -8.17032             -874.54
   38200            -9.91537            -876.295
   38300            -7.41828            -871.201
   38400            -4.08542            -865.914
   38500            -5.55641            -867.363
   38600            -4.72592             -866.37
   38700            -9.39744            -875.038
   38800            -8.84828            -877.976
   38900            -7.53322            -875.905
   39000            -7.75373            -876.159
   39100            -7.92336             -877.63
   39200            -5.19776            -874.076
   39300            -7.62233            -878.308
   39400            -4.89374            -874.696
   39500            -1.49578            -870.719
   39600            -3.62407            -874.857
   39700            -2.09885            -872.343
   39800            -1.90167            -872.377
   39900            0.229686            -869.409
   40000           0.0120081            -870.264
   40100             1.60476            -868.316
   40200              2.7848            -866.663
   40300             1.03521            -869.463
   40400            -3.15422            -876.343
   40500            -0.19198            -872.291
   40600            0.607151            -870.167
   40700            0.456861            -870.151
   40800           -0.690957            -870.921
   40900            -3.88541             -875.14
   41000            -3.86907            -875.195
   41100            -3.41834             -875.64
   41200            -1.99981            -871.536
   41300            -3.49583            -874.927
   41400           -0.726518            -870.344
   41500             2.54095            -866.863
   41600             4.56966            -864.599
   41700             5.34107            -863.172
   41800             8.40352            -857.546
   41900             10.1267            -853.839
   42000             8.18488             -858.85
   42100             8.77861            -857.617
   42200             9.58058            -855.494
   42300             12.1438            -852.844
   42400             14.3577            -848.663
   42500              12.996            -850.787
   42600             11.2158            -854.935
   42700             10.4685             -854.26
   42800             8.90683            -856.928
   42900             12.1461            -850.453
   43000             12.1375            -850.597
   43100             12.8141            -850.797
   43200             11.1017            -852.959
   43300             7.81258            -858.486
   43400              8.3631            -857.987
   43500             8.94446            -857.694
   43600              12.483            -852.169
   43700             10.8376            -855.709
   43800             9.81891            -856.193
   43900             10.0684            -856.656
   44000             8.42791            -860.289
   44100             5.94873            -862.392
   44200             5.11605            -861.077
   44300             3.86831            -861.824
   44400               6.799            -857.193
   44500             8.65202            -853.264
   44600             13.8547            -845.654
   44700             13.1466            -845.987
   44800             9.21254            -853.871
   44900             9.47137            -851.088
   45000             7.65292            -853.064
   45100             8.14127            -852.932
   45200             6.93771             -852.52
   45300             10.1931            -846.717
   45400             10.8727            -844.913
   45500             10.8135            -844.069
   45600             10.7892            -842.891
   45700             7.52477            -849.166
   45800             8.12406            -846.425
   45900             4.10847            -853.921
   46000             4.87699            -853.563
   46100             4.13002            -854.635
   46200             5.53741            -851.646
   46300             4.61301            -855.753
   46400             6.87822            -853.991
   46500              6.1965            -856.706
   46600             7.07788            -854.758
   46700              1.6146            -863.227
   46800            0.755951            -863.804
   46900              2.2098            -861.391
   47000            0.519847            -865.054
   47100           -0.103006            -866.704
   47200              0.6878            -863.582
   47300             4.96205            -858.147
   47400             1.67838            -864.761
   47500              1.5347            -867.908
   47600            -1.09969            -871.687
   47700            -3.09375            -873.763
   47800            -1.24652            -868.303
   47900             1.42576            -866.752
   48000             5.10569            -861.746
   48100             7.08646             -858.98
   48200             8.10085            -857.886
   48300             8.29489            -857.764
   48400             10.0977            -854.872
   48500              5.7772            -862.946
   48600             6.66615            -860.244
   48700             3.51355            -864.411
   48800             4.62323            -861.545
   48900             4.37436            -861.654
   49000              6.8764            -856.314
   49100             6.91514            -855.906
   49200             9.64022            -849.668
   49300             9.40376            -848.349
   49400             12.4119            -843.195
   49500             12.1041            -846.313
   49600             10.1427            -850.598
   49700             10.3732            -850.131
   49800              12.987            -848.148
   49900             14.5564             -845.26
   50000             11.5094            -849.227
   50100             11.6182             -848.13
   50200             12.3168            -847.524
   50300             9.05998            -853.647
   50400             8.11134            -857.659
   50500             9.14748            -857.141
   50600             11.0153            -855.296
   50700             11.6355            -854.629
   50800             10.0892            -857.024
   50900             10.5228            -856.341
   51000             8.41262            -859.307
   51100             5.65904            -863.561
   51200             7.76322            -859.952
   51300             13.4417            -851.069
   51400             14.5841            -849.165
   51500             13.2662             -851.03
   51600             10.3518            -856.644
   51700             5.57283            -861.906
   51800              8.1796            -858.688
   51900             9.20637            -855.332
   52000             6.00123            -862.683
   52100             6.46397             -859.77
   52200              5.8179            -861.473
   52300             4.51073            -864.743
   52400             3.14672            -867.026
   52500             3.48408            -867.817
   52600            0.796955            -872.579
   52700              3.3921            -870.652
   52800             8.32933             -863.89
   52900             9.04319            -864.985
   53000             9.44877            -865.274
   53100             13.8964            -859.251
   53200             10.1966            -862.703
   53300             8.86257            -863.174
   53400             10.4711            -859.783
   53500             12.7041            -855.353
   53600             14.3597            -852.035
   53700             13.6559            -851.502
   53800             10.6036            -857.341
   53900             9.99297            -859.987
   54000              9.0313            -861.866
   54100             10.8304            -860.043
   54200             9.11943             -862.75
   54300             8.28596            -864.213
   54400             8.68741            -861.928
   54500             8.19897            -861.838
   54600             8.13053            -862.102
   54700             8.88017            -862.046
   54800             6.01157            -867.284
   54900             3.00507            -871.817
   55000             2.85457            -871.114
   55100             5.41074            -869.063
   55200             9.50417            -862.282
   55300             9.33929            -863.691
   55400              6.4759            -867.988
   55500             8.44089            -863.511
   55600             10.7587            -861.072
   55700             6.46721             -867.74
   55800             9.64163            -861.808
   55900               10.86            -860.956
   56000               9.027            -864.299
   56100              11.842            -858.338
   56200             11.5358             -858.82
   56300             12.9001            -858.389
   56400             13.8069            -858.025
   56500             11.8942            -858.382
   56600             9.93339            -862.098
   56700             7.86801            -863.423
   56800             10.7087            -859.648
   56900              7.5503            -864.693
   57000             10.1787            -859.274
   57100             10.5754            -859.056
   57200             11.3459            -857.573
   57300             12.3074            -855.637
   57400             7.89847             -862.61
   57500             11.9041            -856.783
   57600             12.9535            -853.816
   57700             12.0368            -854.671
   57800             9.28988            -860.107
   57900             6.73061            -862.517
   58000             6.77333             -863.31
   58100             7.62364            -860.536
   58200             7.81939            -861.911
   58300             9.48637            -860.551
   58400             8.44752            -861.545
   58500              8.6343            -860.913
   58600             9.71718            -857.471
   58700             6.54602            -861.999
   58800             4.85741            -864.576
   58900             6.18245            -860.435
   59000             6.45809            -860.162
   59100             5.46903            -863.048
   59200             5.14492            -865.255
   59300             5.42891            -862.527
   59400             4.44121            -863.065
   59500             3.68331            -864.163
   59600             1.91573            -868.475
   59700             2.96272            -865.797
   59800           -0.760901            -870.535
   59900            -1.55244            -869.421
   60000             -1.7561            -869.558
   60100            -2.64094            -869.539
   60200            -3.84111            -872.011
   60300            -3.78514             -873.29
   60400          -0.0675244            -866.309
   60500           -0.163834            -866.392
   60600            -2.73361              -868.7
   60700             1.51689            -860.974
   60800            0.568084            -862.553
   60900            0.145844            -862.826
   61000            0.123285            -864.304
   61100            0.897573            -864.507