       0             13.1072            -962.885
     100             18.3578            -957.778
     200             18.9012            -956.828
     300             22.3857            -952.435
     400             22.0262            -951.943
     500             22.8409            -948.526
     600             25.1294            -944.628
     700              29.422            -939.097
     800             27.1659             -940.71
     900             28.5134            -936.442
    1000             25.5548            -940.586
    1100             23.6751            -941.718
    1200             19.6456            -945.172
    1300             15.3918            -948.706
    1400             12.2634             -950.87
    1500             13.2088            -948.842
    1600             9.21907            -954.673
    1700             10.5748            -952.206
    1800             10.6459            -953.176
    1900             8.70821            -956.091
    2000             9.39758            -955.355
    2100             10.3494             -954.72
    2200             11.7478            -951.643
    2300              14.218            -951.361
    2400              12.338             -953.14
    2500             16.3091            -945.664
    2600             14.8148            -946.842
    2700             14.8141            -948.048
    2800             15.0488            -945.333
    2900             18.1827            -942.243
    3000             19.1508            -941.215
    3100              20.087            -938.697
    3200              22.494            -933.307
    3300             25.0634            -930.106
    3400             25.3178            -929.282
    3500             26.4486            -929.037
    3600             23.9478            -934.519
    3700             25.3071            -933.471
    3800              26.742            -933.151
    3900             22.5601            -937.894
    4000             18.4249            -943.348
    4100             17.9152            -943.457
    4200             21.0712            -937.821
    4300              23.187            -933.853
    4400             25.9823            -928.504
    4500             26.8402            -930.009
    4600             29.3509            -928.582
    4700             24.1911            -933.924
    4800             24.0558            -931.889
    4900             25.1899            -929.471
    5000              23.343            -934.401
    5100             21.8373            -936.354
    5200             21.3382            -938.066
    5300             20.7052            -937.655
    5400             19.8641            -940.209
    5500             21.3703            -938.847
    5600             21.1182            -939.558
    5700              21.922             -937.55
    5800              24.393            -935.141
    5900             21.3389            -938.963
    6000             24.8307            -933.245
    6100             25.4596            -932.778
    6200              27.951            -929.362
    6300              25.031            -930.197
    6400             22.0226            -933.588
    6500             18.3832            -938.238
    6600              15.982            -939.884
    6700             17.5312            -938.814
    6800             13.8611            -945.038
    6900             16.4976            -943.938
    7000             14.5414             -947.74
    7100             14.6304            -944.752
    7200             11.9213            -949.357
    7300             10.1603            -951.262
    7400             11.3189            -949.592
    7500              10.437            -949.588
    7600             8.24689            -953.415
    7700             8.99268            -954.292
    7800             12.1485             -948.56
    7900             10.2818            -950.537
    8000             6.59402            -954.895
    8100             6.79669             -953.75
    8200             6.29785            -954.621
    8300             8.00283            -952.617
    8400             5.87592            -955.995
    8500             4.48363            -957.873
    8600             1.62004            -961.649
    8700           -0.953494            -964.686
    8800           -0.230455            -962.782
    8900             4.98811            -954.988
    9000             2.43585            -957.439
    9100             4.60683            -954.675
    9200             7.78865            -951.078
    9300             9.65805            -947.591
    9400             7.93141            -948.887
    9500             8.62284            -946.462
    9600             8.81959            -946.589
    9700             4.94207            -952.317
    9800             3.15336            -953.042
    9900             4.26813            -949.947
   10000             7.91814            -942.778
   10100             7.79511            -942.827
   10200             12.0331            -936.098
   10300             12.6381            -934.678
   10400             14.1171            -934.442
   10500             11.9311            -939.035
   10600             11.5969            -940.206
   10700             12.1425            -940.194
   10800             13.8715            -935.972
   10900             13.4144            -938.619
   11000             14.4059            -937.004
   11100             15.7342            -932.831
   11200             11.8761            -936.703
   11300             14.4584              -933.4
   11400             16.4401            -930.275
   11500             15.3939            -932.127
   11600             12.8859            -933.454
   11700             11.6572            -934.421
   11800             7.34286            -942.219
   11900             6.29366            -943.535
   12000             7.91596            -941.406
   12100             9.45115            -936.635
   12200             7.40175            -940.172
   12300             7.78074            -938.212
   12400             8.41266            -935.076
   12500             8.29207            -935.584
   12600             8.88147            -934.674
   12700              8.0997            -934.344
   12800             10.3252            -930.822
   12900             9.54603            -930.202
   13000             7.89927             -931.89
   13100             6.74384            -934.254
   13200             9.81289            -933.328
   13300             6.24209            -939.344
   13400             8.18031            -935.689
   13500             9.56295             -933.68
   13600             7.58701            -936.278
   13700             6.36534            -938.258
   13800             7.68679            -934.053
   13900             3.55915            -941.746
   14000             3.22362            -943.181
   14100             5.79899            -938.623
   14200             3.74235            -940.724
   14300              5.8335            -940.685
   14400             6.71821             -937.92
   14500             6.01311            -940.037
   14600             7.48843            -938.262
   14700             7.83788             -937.79
   14800             6.98383             -937.39
   14900             5.72801            -938.503
   15000             7.34748            -934.607
   15100             5.61313            -937.488
   15200             5.70452            -937.945
   15300             6.83806            -935.034
   15400             10.1996            -930.694
   15500             9.61583            -930.811
   15600             8.10964             -932.94
   15700             7.22281            -934.057
   15800             5.96307            -937.334
   15900             6.11472              -934.3
   16000             6.39069            -933.735
   16100              7.7897            -930.482
   16200             6.18485             -932.02
   16300             7.09594            -930.229
   16400             12.2561            -919.966
   16500             11.5042            -922.767
   16600             8.06891            -926.962
   16700             7.37539            -927.991
   16800             8.18003            -925.849
   16900             10.3629             -924.37
   17000             8.87268            -926.314
   17100             9.91298            -924.165
   17200              9.5391            -923.976
   17300             5.83689            -929.504
   17400             2.59923            -934.966
   17500             2.33862            -934.359
   17600            0.273203            -937.208
   17700            0.610002            -936.526
   17800            -1.59168            -939.754
   17900             -1.5815            -936.994
   18000            -4.03426            -940.375
   18100            -3.48429            -940.773
   18200             -3.2644            -941.939
   18300            0.795296            -934.624
   18400             1.78853            -933.013
   18500             2.95703            -931.954
   18600             3.43032            -930.154
   18700             6.60794            -925.261
   18800             4.68868            -928.484
   18900              4.9101            -929.236
   19000             6.92135            -925.966
   19100             5.29938            -927.717
   19200             4.60439            -927.531
   19300             8.89741            -921.418
   19400             7.32287            -921.751
   19500             5.13071            -926.093
   19600             4.22207            -928.029
   19700             6.88876            -925.048
   19800             5.25305            -926.234
   19900             3.79654            -929.426
   20000            0.010368            -934.056
   20100            0.667852            -933.226
   20200            0.199261            -932.559
   20300             1.92314            -927.832
   20400             3.87712            -922.801
   20500             3.87223            -922.344
   20600             6.49234            -919.878
   20700             2.17189            -924.666
   20800            -1.33858            -929.636
   20900            -2.46113            -931.115
   21000           -0.285877            -928.917
   21100            0.134612            -928.005
   21200             2.68877             -924.33
   21300             1.72248            -924.754
   21400             3.16336            -920.473
   21500             2.94502            -918.953
   21600              1.7537              -920.1
   21700             3.25153            -918.205
   21800             6.61823            -913.994
   21900             6.52633            -914.337
   22000             3.78282            -919.148
   22100             6.75191            -914.286
   22200             4.41842            -919.129
   22300             6.20956             -916.09
   22400             4.39119            -918.006
   22500             5.93544            -914.527
   22600             3.40242            -919.422
   22700            -2.62566            -929.459
   22800          -0.0119054            -926.498
   22900            -1.98484            -928.417
   23000            -4.46738            -930.421
   23100            -2.00271            -925.808
   23200             1.08326             -923.22
   23300             1.86096            -924.212
   23400             1.13342            -924.548
   23500             1.19917             -924.06
   23600             4.81959            -919.573
   23700             6.00484            -917.145
   23800             5.65974            -917.458
   23900             4.85888            -918.582
   24000             3.27785            -920.187
   24100             3.64001            -918.946
   24200              4.2552            -920.259
   24300            0.250823            -925.856
   24400             1.13399            -924.348
   24500            -1.30735             -927.68
   24600             1.76108            -922.756
   24700           -0.675329            -926.908
   24800            -2.11929            -928.947
   24900            -1.83467            -930.404
   25000            -1.81299            -930.234
   25100           -0.431131            -929.201
   25200            -1.14526            -931.302
   25300             -1.5579            -932.423
   25400           -0.219451            -929.819
   25500            -1.85916            -932.093
   25600            -4.14609            -935.143
   25700            -3.27142            -932.222
   25800            -7.26615            -940.401
   25900            -6.49426             -939.61
   26000            -4.38589             -937.01
   26100            -2.67152            -932.948
   26200            -1.03417            -927.669
   26300             3.35255            -920.869
   26400             3.63886            -920.774
   26500            0.744836            -923.748
   26600             3.31752            -920.697
   26700             2.49152            -920.876
   26800             3.14227            -919.947
   26900             5.06349            -916.808
   27000             6.59708            -914.394
   27100             5.20551            -916.419
   27200              2.4377            -918.553
   27300             3.46932            -915.807
   27400             3.12906            -915.866
   27500             7.12529            -911.299
   27600             3.78594            -916.429
   27700             3.34346            -914.935
   27800             2.64197             -915.04
   27900             5.95809            -908.687
   28000             2.48701            -913.673
   28100           -0.298023            -916.233
   28200            -1.87545             -920.01
   28300            0.459223            -917.154
   28400            -3.29782            -921.658
   28500            -2.96055            -921.668
   28600            0.437914            -916.726
   28700            -2.57248            -920.473
   28800              -3.642            -922.358
   28900          -0.0996638            -918.924
   29000           -0.476514            -921.015
   29100             2.40416            -917.975
   29200             6.55377            -913.181
   29300              5.3971            -914.027
   29400             9.89683            -906.094
   29500             12.3195            -901.037
   29600             7.08567            -910.932
   29700             4.06469            -914.202
   29800             11.0577            -901.476
   29900             11.3007            -901.437
   30000             11.6623            -901.314
   30100             11.7888            -900.252
   30200              13.619            -897.796
   30300             10.9949            -902.444
   30400             10.8696            -901.229
   30500               7.767            -905.624
   30600             4.92467            -910.288
   30700             4.07694            -910.126
   30800            -1.76169            -918.622
   30900            -4.12169            -921.227
   31000            -2.30561            -920.075
   31100            -4.15073            -923.592
   31200            -6.90863            -926.736
   31300            -8.20971            -927.737
   31400            -8.05592            -928.256
   31500            -7.85688            -927.162
   31600            -7.90599            -926.484
   31700            -9.17376            -928.598
   31800            -11.5987            -933.454
   31900             -8.2421            -927.627
   32000            -5.79028            -923.026
   32100            -6.23962            -923.178
   32200            -5.21786            -921.303
   32300            -4.49352            -920.342
   32400            -5.84884            -923.857
   32500            -8.76074            -928.235
   32600            -10.2683            -929.505
   32700            -10.1859            -929.939
   32800            -8.45811             -928.45
   32900            -3.92285             -921.62
   33000            -4.01716            -920.709
   33100            -3.25981            -920.416
   33200            -4.41259            -922.554
   33300             -7.9261            -927.711
   33400            -5.98892            -923.159
   33500            -5.79324             -923.81
   33600            -2.59167            -917.709
   33700            -5.28619            -921.569
   33800            -5.22879            -920.899
   33900            -3.98443             -917.14
   34000            -4.66587             -917.64
   34100            -5.69017            -919.908
   34200            -8.36457             -925.25
   34300            -5.05076             -918.79
   34400            -5.67905            -920.255
   34500            -6.82598            -920.591
   34600            -2.48408            -914.607
   34700             1.35091            -907.437
   34800             3.36768            -906.143
   34900             1.19283            -907.484
   35000           -0.182797            -908.666
   35100            0.626979            -905.718
   35200            0.382271            -906.454
   35300            -1.23049            -911.047
   35400            -1.33289            -912.046
   35500            -2.40738            -913.156
   35600            -2.68118            -913.243
   35700            -4.55767            -915.584
   35800            -2.30007            -912.573
   35900            -5.01354            -916.799
   36000            -4.88471            -917.427
   36100            -3.14062            -913.099
   36200              1.1112             -907.99
   36300             1.30868            -907.611
   36400            0.905313            -907.558
   36500             2.70536            -903.577
   36600             1.24765            -905.786
   36700            -3.65555             -913.92
   36800            -3.26088             -913.04
   36900            -4.01408            -916.162
   37000            -5.08175            -919.184
   37100            -5.09031            -919.731
   37200             -6.3743            -922.228
   37300            -5.80256             -919.25
   37400            -2.53319            -914.879
   37500            -2.98618            -915.635
   37600             1.20549            -909.118
   37700            -1.92034            -914.572
   37800            -3.01279            -916.045
   37900            -4.24867            -918.577
   38000            -6.88467            -921.875
   38100            -5.51155            -921.047
   38200             -7.0752            -923.104
   38300             -7.2747            -924.535
   38400            -5.09243            -920.792
   38500            -5.05227            -919.284
   38600            -8.49479            -924.931
   38700            -11.7113            -928.985
   38800             -11.405             -928.83
   38900            -9.37658            -925.172
   39000            -5.88321            -919.723
   39100            -6.44592            -920.378
   39200            -5.06557            -919.748
   39300            -5.82787            -920.248
   39400            -5.17182            -920.022
   39500            -5.93444            -920.903
   39600            -8.14015            -923.415
   39700            -9.90805            -927.605
   39800            -9.70128             -928.62
   39900            -8.68006            -927.157
   40000            -6.79437            -923.315
   40100            -10.0478            -928.721
   40200            -6.85864            -925.058
   40300            -3.54643            -920.641
   40400            -2.74062            -919.318
   40500              -5.594            -923.022
   40600            -5.66068            -921.871
   40700            -4.07201            -918.264
   40800            -4.41486            -918.927
   40900            -4.42568            -918.713
   41000            -4.39092            -918.304
   41100            -8.44529            -923.874
   41200            -10.0771            -926.967
   41300            -9.61882            -926.999
   41400            -9.89455            -925.908
   41500            -13.4115            -931.497
   41600             -14.809            -933.646
   41700            -15.3977            -932.734
   41800            -17.0591            -934.329
   41900            -13.7583            -931.295
   42000             -13.836            -930.762
   42100            -11.8809            -926.675
   42200            -9.33114            -923.242
   42300             -7.8769            -921.298
   42400             -5.3162            -917.091
   42500            -6.10699            -918.405
   42600            -7.51213             -921.26
   42700            -8.20199            -921.648
   42800             -10.015            -923.709
   42900            -11.2607            -925.962
   43000            -12.6862            -928.901
   43100            -13.7092            -930.177
   43200             -13.936            -928.367
   43300            -10.2485            -923.354
   43400            -7.96538            -920.189
   43500            -5.06947            -915.865
   43600            -7.15229            -920.141
   43700            -9.13385            -924.393
   43800            -8.79014            -924.395
   43900            -9.37115            -926.266
   44000            -10.3555            -928.068
   44100            -6.76424            -922.382
   44200            -9.18732            -927.212
   44300            -6.21841            -923.049
   44400            -6.05895            -923.047
   44500            -8.36644            -925.367
   44600            -7.90038            -924.612
   44700            -7.30054            -923.983
   44800            -7.32204            -924.156
   44900            -3.24386            -918.444
   45000            -8.91404            -926.136
   45100            -5.75188            -921.664
   45200            -7.23497            -925.632
   45300            -9.23165            -928.826
   45400            -14.7353            -936.835
   45500            -14.1425            -936.324
   45600            -16.8993            -941.012
   45700            -12.4888            -933.851
   45800            -11.5867            -932.272
   45900            -11.5835              -931.8
   46000            -10.9267            -928.828
   46100            -13.2433            -931.905
   46200            -9.61026            -925.341
   46300            -6.90517            -921.789
   46400            -9.13306            -925.017
   46500            -5.90096            -920.973
   46600            -6.55011            -922.754
   46700            -6.31867            -919.697
   46800            -7.58859            -923.479
   46900            -9.63852            -926.531
   47000            -8.51791            -925.723
   47100            -8.59393            -926.163
   47200            -10.2225             -926.19
   47300            -7.63211            -920.945
   47400            -4.97739            -919.162
   47500            -5.04078            -919.489
   47600            -4.69447             -920.19
   47700             -4.3827            -919.443
   47800            -6.34937            -921.538
   47900             -8.1648            -924.562
   48000            -7.60193            -923.883
   48100            -11.2944            -929.909
   48200            -10.5084            -929.819
   48300            -12.5931            -934.294
   48400            -12.6716            -933.848
   48500            -9.05564            -927.153
   48600            -10.1489            -928.891
   48700            -8.76862            -926.575
   48800            -11.4587            -930.214
   48900            -8.78716            -925.583
   49000            -7.56833            -924.782
   49100            -4.96273            -922.142
   49200            -2.41093            -917.267
   49300            -1.63682            -916.524
   49400            -6.31556            -924.378
   49500            -7.57388            -927.023
   49600            -8.77916            -929.735
   49700            -9.07249            -931.767
   49800             -9.3196            -933.409
   49900             -8.0419             -932.59
   50000            -5.03775            -925.491
   50100            -4.17287            -924.477
   50200            -4.47828            -924.244
   50300             -1.2846            -919.401
   50400            -1.32105            -919.599
   50500            -2.72086            -923.567
   50600            -1.86099            -921.027
   50700            -1.01334            -916.981
   50800           -0.850085            -918.502
   50900            -2.20475             -920.97
   51000            -3.13858            -922.324
   51100           -0.630763            -919.811
   51200            -2.93584            -923.417
   51300             -4.6263            -924.425
   51400             -5.8448            -926.711
   51500            -4.97156            -925.754
   51600            -3.45992            -922.519
   51700              -1.442            -918.642
   51800            -1.82917            -919.885
   51900            -1.89842            -919.171
   52000            -2.22206            -920.094
   52100            -2.52616            -923.165
   52200            -1.18337            -921.145
   52300            -4.31607            -925.967
   52400            -3.74638            -925.684
   52500            -7.94705            -933.311
   52600             -5.5824            -927.574
   52700            -4.70615            -926.478
   52800            -6.44211            -930.672
   52900            -2.99074            -922.823
   53000            -2.28593            -921.819
   53100             2.08951            -915.471
   53200             3.17654            -912.799
   53300            -0.58992             -918.88
   53400            -4.93972            -925.316
   53500            -5.41016             -926.07
   53600            -6.40806            -927.728
   53700            -6.83694            -927.219
   53800            -6.71703            -927.704
   53900            -8.34727            -929.773
   54000            -10.8701            -932.985
   54100            -12.8577            -936.084
   54200            -12.5957             -935.81
   54300            -13.5837            -937.277
   54400            -12.8055            -935.557
   54500            -14.2119            -939.287
   54600             -15.164            -940.012
   54700            -13.2713            -937.646
   54800            -11.2232            -934.416
   54900            -12.5603            -937.907
   55000            -8.71141            -931.138
   55100            -11.8958            -937.102
   55200            -11.9643            -937.958
   55300            -8.12029            -932.873
   55400            -10.2783            -937.677
   55500            -6.14074            -930.855
   55600            -5.95133            -930.617
   55700            -7.47339            -930.876
   55800            -5.75745            -928.529
   55900            -6.16265            -928.846
   56000            -5.83477            -927.647
   56100            -7.17965            -928.128
   56200            -6.03872            -926.587
   56300            -6.50508            -927.285
   56400            -7.95568             -930.53
   56500            -5.94297            -927.303
   56600            -4.58055            -926.121
   56700            -3.74404            -925.239
   56800            -4.46843            -925.229
   56900             1.57771            -916.122
   57000            -1.36469            -920.841
   57100            -3.90106            -925.749
   57200            -5.31219            -927.987
   57300            -7.95962            -932.986
   57400            -5.56526            -928.827
   57500            -6.84072            -931.665
   57600               -5.83            -930.532
   57700            -5.53553            -928.343
   57800            -1.64587            -921.883
   57900             -2.6059            -922.742
   58000            -3.86207            -925.124
   58100            -2.69512            -922.142
   58200            -1.97755            -923.038
   58300              1.6105            -918.754
   58400             2.50076            -915.248
   58500              2.7084            -913.158
   58600            -1.81031            -918.325
   58700            -11.0512            -933.914
   58800            -11.0404            -934.168
   58900             -12.524            -936.911
   59000             -9.7819            -933.161
   59100            -10.7694            -934.931
   59200            -10.9228            -933.966
   59300            -10.5835            -934.313
   59400              -9.423            -931.612
   59500            -10.6556            -932.196
   59600            -9.78153            -931.045
   59700            -14.7676            -938.873
   59800            -14.2062            -938.386
   59900            -14.8137            -937.409
   60000            -16.1023            -940.144
   60100            -18.8681            -943.796
   60200            -21.3312            -947.535
   60300             -17.887            -942.562
   60400            -17.8988            -944.456
   60500            -17.6636            -944.586
   60600            -20.7789            -947.892
   60700            -23.4529            -952.616
   60800            -20.7804            -948.753
   60900            -18.6871            -946.474
   61000            -20.2058            -949.379
   61100            -17.5661             -945.13