       0             8.23958            -984.484
     100              5.9279            -986.568
     200             3.76233             -988.72
     300             7.07764            -982.783
     400             10.1059             -979.57
     500             9.11992            -978.546
     600             11.9717             -974.73
     700             14.9378            -971.015
     800             15.0178            -971.378
     900             15.9952            -969.742
    1000             17.8804            -965.664
    1100             20.3189            -961.634
    1200             17.1594            -964.095
    1300             19.1958             -960.59
    1400             16.3703             -964.63
    1500             17.6025            -961.369
    1600             17.0448            -962.564
    1700             13.7494            -964.205
    1800             15.2776             -962.91
    1900             13.1731             -963.07
    2000             13.9415            -959.599
    2100             13.6199            -959.338
    2200             14.2853             -956.41
    2300             10.3556            -962.974
    2400             12.6934            -959.381
    2500              8.8556            -966.837
    2600             11.0772            -962.328
    2700             13.4083            -958.628
    2800             12.3499            -960.042
    2900             11.9698            -960.764
    3000             12.4413            -959.785
    3100             13.9196            -957.349
    3200             15.3956            -955.704
    3300             14.1953            -957.286
    3400             16.9974            -953.324
    3500             16.9662            -952.383
    3600              16.333            -953.745
    3700             20.5853            -946.746
    3800             26.4417            -938.257
    3900             22.1115            -943.784
    4000             22.2006            -942.363
    4100             25.5306            -936.265
    4200              23.518            -939.589
    4300              16.529            -950.354
    4400             15.3789            -953.418
    4500             17.7838            -950.257
    4600             18.9824            -947.621
    4700             18.0495            -946.732
    4800             20.3412             -944.25
    4900             26.9179            -934.456
    5000             23.4608            -941.215
    5100             23.9902            -941.887
    5200             24.7405             -939.57
    5300             23.4852            -941.425
    5400             26.2781            -938.681
    5500             23.7103            -942.543
    5600              19.846            -948.685
    5700             18.7384            -950.603
    5800             21.0355            -945.087
    5900              22.633            -943.371
    6000             23.8275            -941.792
    6100             19.9305            -946.878
    6200             18.0227            -947.385
    6300             18.2969            -947.695
    6400             14.6382            -950.954
    6500             15.8558            -946.539
    6600             14.5627            -948.319
    6700             14.1265            -949.073
    6800             11.6226            -953.325
    6900             13.3698            -951.484
    7000             12.2179            -953.043
    7100             14.0131            -950.876
    7200              14.234            -948.852
    7300             8.84691            -955.992
    7400             6.83286            -957.239
    7500             6.30091            -957.021
    7600             4.64154            -959.585
    7700             2.47568            -964.183
    7800              3.4174            -961.526
    7900           -0.126969              -966.5
    8000             2.57811            -964.858
    8100             6.18043            -960.745
    8200             7.18137            -958.576
    8300             10.4383            -952.044
    8400             12.1306            -948.806
    8500             12.0558            -950.315
    8600             9.35738            -955.339
    8700              9.2312            -953.873
    8800             5.32569            -959.908
    8900             11.8963            -950.942
    9000             14.2417            -947.784
    9100             13.9423            -947.669
    9200              13.784            -947.029
    9300             12.5792            -948.233
    9400             16.1142            -942.847
    9500             11.8943            -948.277
    9600             7.83572            -953.185
    9700             7.87816            -953.454
    9800             9.41684            -949.922
    9900             8.17559            -951.453
   10000             7.92508            -949.689
   10100             5.68742             -953.15
   10200             3.65821            -955.935
   10300             3.91763            -953.707
   10400           0.0934218              -958.8
   10500             1.03578            -957.029
   10600             2.21865            -954.524
   10700            0.589604            -956.198
   10800            -1.31328            -957.655
   10900            0.118147            -955.931
   11000            -3.19546            -962.179
   11100            -3.34025            -961.766
   11200            -2.84513            -961.551
   11300             2.96614            -954.615
   11400             3.52364            -953.457
   11500             3.68104            -952.543
   11600             4.87125             -949.43
   11700             4.96324             -947.34
   11800             3.78482            -947.817
   11900             1.44129            -951.667
   12000             2.44638            -950.062
   12100             6.70798            -943.802
   12200             9.49588            -937.597
   12300             7.83706            -940.794
   12400             8.25569            -940.503
   12500             5.89201            -946.042
   12600             7.95797            -943.586
   12700             8.84139            -942.456
   12800             12.9897            -934.704
   12900             10.7836            -937.803
   13000             13.4693            -932.251
   13100             11.9309            -934.083
   13200             9.07039            -939.441
   13300             8.35166            -940.841
   13400             4.50715             -946.49
   13500             1.18025            -952.203
   13600             2.92137            -950.026
   13700             4.84723            -948.869
   13800             3.25395            -950.618
   13900             6.88601            -943.492
   14000             11.6973            -936.797
   14100             14.0428            -931.455
   14200             11.3436            -934.846
   14300             9.28266            -938.377
   14400             2.77061            -948.898
   14500              1.7257            -950.117
   14600             4.31622            -946.653
   14700             7.18867            -942.062
   14800             4.75591            -944.743
   14900             3.15216            -947.246
   15000              3.6887            -947.177
   15100              4.9905            -944.255
   15200             3.38137            -948.977
   15300             2.56981            -949.962
   15400              3.7097             -948.77
   15500             5.05396            -948.065
   15600             9.18662            -941.585
   15700              8.4923            -941.021
   15800             9.65377            -939.627
   15900             12.5049            -935.436
   16000             12.6609            -936.077
   16100             13.1952             -936.03
   16200             19.1295            -926.716
   16300             21.1362            -923.404
   16400             21.1511              -923.2
   16500             24.1808            -919.156
   16600             24.3626            -917.832
   16700             22.8055            -919.072
   16800             23.6012            -917.382
   16900             20.2758            -922.761
   17000             20.2027            -922.345
   17100             13.5654            -932.843
   17200             14.2199            -930.202
   17300             17.0408            -925.737
   17400             14.6398            -929.237
   17500             12.7417            -930.607
   17600             15.6315            -926.782
   17700             12.3164            -932.648
   17800             12.3389            -933.999
   17900             15.2772            -929.562
   18000             12.2277            -933.884
   18100             8.56972            -940.011
   18200             9.93703            -937.621
   18300              7.4336            -941.102
   18400             9.89923            -935.898
   18500             7.09277            -940.079
   18600             7.45381            -939.393
   18700             6.74816            -939.949
   18800             6.84424            -938.692
   18900             5.64544            -940.674
   19000             3.91537            -942.588
   19100             6.34977            -940.265
   19200             5.43079            -942.847
   19300             4.14793            -944.594
   19400             4.87199            -944.015
   19500             3.94002            -945.086
   19600             6.83638            -939.495
   19700             10.2267            -933.159
   19800             9.00798            -935.519
   19900             6.37251            -939.221
   20000             6.10062            -939.964
   20100             3.03032            -943.101
   20200              6.5095            -939.825
   20300             6.38597            -940.376
   20400             6.45451            -938.982
   20500             2.01659            -943.733
   20600             1.11899            -945.409
   20700            -1.47722            -948.682
   20800           0.0900174            -947.209
   20900            -1.68402            -946.202
   21000            -4.38952            -949.489
   21100            -5.38017            -949.073
   21200            -7.21984            -950.709
   21300            -6.05529            -948.701
   21400              -6.377            -948.437
   21500            -5.98316            -948.827
   21600            -7.43357            -952.323
   21700            -7.60713             -953.39
   21800            -9.12737            -955.504
   21900            -9.67281            -955.966
   22000            -7.42532            -953.347
   22100            -9.34668            -956.283
   22200            -7.38425            -953.489
   22300            -5.47778            -950.784
   22400            -6.94349            -953.277
   22500             -7.8542             -955.69
   22600            -9.11842            -957.447
   22700            -8.46022            -956.268
   22800            -6.84578            -951.847
   22900            -8.28666            -953.036
   23000            -6.96555            -953.556
   23100               -4.44            -950.639
   23200            -7.61644            -957.521
   23300             -5.4266              -956.1
   23400            -1.32332            -949.182
   23500            -2.31464            -952.748
   23600           -0.483219            -949.799
   23700            -1.12094            -949.012
   23800            0.470249            -947.887
   23900             -3.5821            -953.244
   24000            -2.18128             -951.38
   24100            -7.16588            -957.274
   24200            -11.1062            -961.914
   24300            -7.21604            -956.644
   24400            -10.9438            -961.759
   24500            -12.3349            -963.238
   24600            -10.6348             -961.79
   24700            -11.5813             -961.96
   24800            -11.2733            -960.098
   24900            -11.0305            -959.555
   25000            -9.36233            -956.982
   25100            -7.40016            -953.346
   25200            -3.04838            -947.154
   25300            -1.95989             -945.41
   25400            -3.34248            -946.663
   25500            0.642906            -939.942
   25600             3.14462             -936.54
   25700             2.33032            -938.277
   25800              1.2434            -940.179
   25900             -1.8538            -945.058
   26000            -2.11824            -945.279
   26100            -6.35712             -952.47
   26200            -7.26693            -953.476
   26300            -6.44927            -952.705
   26400            -1.29547            -946.327
   26500             -2.0461            -946.359
   26600            -2.28122            -947.792
   26700             -5.0013            -953.917
   26800           -0.331502            -947.514
   26900             1.02737            -945.438
   27000             4.06167            -941.506
   27100             2.53907            -942.001
   27200            -1.70696            -949.308
   27300            -2.26965            -950.698
   27400          -0.0265831            -944.753
   27500            0.723896            -943.958
   27600            -1.17449            -945.772
   27700            -1.15076            -944.123
   27800           -0.228929             -942.62
   27900            -2.45288            -946.287
   28000            -0.48934            -944.281
   28100             -1.4822            -945.945
   28200             2.54269             -940.38
   28300             4.00978            -939.285
   28400             4.58895            -938.786
   28500             7.53818            -934.327
   28600             3.40277            -943.045
   28700             6.86936            -936.561
   28800             5.70419            -939.075
   28900             4.84914            -940.334
   29000             8.82917            -934.665
   29100             8.31626             -934.96
   29200             6.27538            -938.659
   29300             7.78528            -935.451
   29400             7.17253            -938.286
   29500             9.47278            -934.008
   29600             8.76758            -934.585
   29700             7.40829            -936.556
   29800             9.44992            -933.265
   29900             4.81444            -939.978
   30000             4.64229            -940.426
   30100             3.57634            -941.204
   30200             1.66769            -944.104
   30300             4.18867            -939.357
   30400             5.07187            -938.608
   30500             5.60162             -938.26
   30600             3.76931            -940.205
   30700             6.50478            -935.466
   30800             2.86542            -941.792
   30900             2.50129            -943.496
   31000             2.12782            -945.555
   31100             2.96605            -943.094
   31200             4.53757            -940.031
   31300             7.43895            -936.994
   31400             4.99346            -940.613
   31500              5.5959            -940.934
   31600            0.813442            -949.703
   31700             5.07562             -942.75
   31800             2.88384            -945.599
   31900              3.0213            -944.886
   32000             6.25607            -940.672
   32100             4.25767            -944.633
   32200             5.89836            -940.268
   32300             5.79521            -941.351
   32400             5.47123            -942.016
   32500             5.34418            -941.933
   32600             7.00742            -939.797
   32700             8.00052            -939.099
   32800             11.3852            -933.281
   32900             11.6128             -932.02
   33000             17.5911            -921.007
   33100             16.1973            -921.733
   33200             15.1286            -923.707
   33300             9.52744            -932.327
   33400             12.3701            -928.028
   33500             14.9469            -923.281
   33600             13.1685             -927.25
   33700             10.0153            -934.458
   33800             5.91991            -940.046
   33900             5.10097            -940.329
   34000             8.30041            -936.391
   34100             9.89591            -934.463
   34200              5.7606            -940.552
   34300             6.33273            -940.812
   34400             2.76486            -946.961
   34500              6.3969            -939.802
   34600             5.05452            -942.069
   34700             2.04631            -947.639
   34800             1.06342            -947.433
   34900            -1.97211              -951.2
   35000            -2.33425            -951.796
   35100             2.06593            -945.371
   35200            0.373193            -947.454
   35300             3.47695            -944.048
   35400             6.17243            -939.955
   35500             4.88281             -943.58
   35600             2.26428            -947.705
   35700             3.19982            -945.528
   35800              3.1675            -946.268
   35900             7.56812            -939.251
   36000             12.5614            -930.952
   36100             12.2299            -931.899
   36200             12.7142            -929.703
   36300             12.7253            -929.619
   36400             11.5392            -932.268
   36500             9.67051            -934.906
   36600             8.24727            -937.668
   36700             9.75626            -937.371
   36800             12.7527            -933.366
   36900             7.91168            -940.718
   37000             1.52636            -951.756
   37100              4.4387            -948.241
   37200             3.91803            -948.771
   37300             6.31362            -944.137
   37400             7.95739            -940.947
   37500             8.82033            -939.273
   37600              9.3561             -938.42
   37700             9.38646            -940.015
   37800             7.60178            -942.238
   37900             1.96069            -948.943
   38000            -2.32365            -954.019
   38100            -1.15618             -953.62
   38200           -0.232401            -953.229
   38300             2.54765            -949.787
   38400            0.633329            -951.285
   38500             1.39201            -950.008
   38600           -0.934598             -955.38
   38700           -0.431228             -954.95
   38800            -1.97849            -957.696
   38900           -0.189318            -953.316
   39000            -4.43078            -960.789
   39100            -6.94305            -963.495
   39200            -3.75381            -960.707
   39300            -3.46463            -960.353
   39400            -1.44046            -957.697
   39500             1.87988            -952.437
   39600             2.96135            -951.508
   39700           -0.448074             -955.95
   39800             3.99262            -951.214
   39900             4.44763             -948.37
   40000             3.70207            -950.142
   40100             6.94631            -944.029
   40200             9.46369            -940.798
   40300             6.79165            -944.906
   40400             3.31396            -949.447
   40500             4.28448            -948.957
   40600             5.77914            -945.716
   40700             6.05351            -943.498
   40800             6.78808            -942.002
   40900             9.79612            -938.837
   41000             6.67024            -944.724
   41100             4.57333            -946.021
   41200             3.72073            -948.066
   41300             3.24748            -949.527
   41400           -0.546483            -955.122
   41500           -0.614606            -955.432
   41600           -0.837362            -956.451
   41700             1.05876            -953.503
   41800            -1.13213            -956.092
   41900            -1.51582            -957.032
   42000            -2.97155            -959.998
   42100            -1.63875             -957.87
   42200            -4.00385            -961.936
   42300           -0.749413            -957.728
   42400              1.7859            -955.958
   42500             1.14906            -955.873
   42600             3.44476            -951.876
   42700             0.13104            -956.278
   42800            0.977713            -955.194
   42900             2.07002            -952.498
   43000             6.46463            -947.314
   43100             6.95536            -945.563
   43200             4.53176            -950.171
   43300             4.35664            -951.902
   43400             8.85897            -946.237
   43500             4.90858            -952.583
   43600             4.38488            -952.685
   43700             5.02294            -951.534
   43800             7.90657            -947.645
   43900             5.27039            -950.866
   44000             6.75383             -947.43
   44100             5.38602            -948.369
   44200             5.02687            -949.913
   44300             2.36596            -953.429
   44400            -1.20858            -959.202
   44500            -5.28865            -965.313
   44600            -4.05608             -962.12
   44700            -1.60441            -957.904
   44800           -0.864392            -956.427
   44900            -1.89601            -957.887
   45000           -0.897085            -956.871
   45100             1.08953            -954.037
   45200            0.860162            -953.214
   45300             1.13855            -952.375
   45400            0.686786            -951.655
   45500            -0.90646            -953.581
   45600            -3.22639            -957.146
   45700            -1.16595            -952.726
   45800            -3.38454              -955.8
   45900            -4.61198            -957.873
   46000            -4.95039            -956.718
   46100             -3.8414            -955.046
   46200            -6.65424            -959.771
   46300            -7.33593            -959.622
   46400            -8.12259             -962.68
   46500            -8.11789            -961.882
   46600            -5.84977            -958.979
   46700           -0.235523            -949.912
   46800            0.391572            -949.466
   46900           -0.306074            -950.041
   47000            -1.29226            -952.471
   47100            -2.00913            -953.088
   47200           -0.928174            -948.965
   47300            0.645629            -947.583
   47400             1.94762            -943.409
   47500            0.306338            -945.693
   47600             3.10866            -941.068
   47700             4.61471             -938.58
   47800             5.42682            -937.384
   47900             5.14509             -938.98
   48000             2.00915            -944.508
   48100             1.86942            -943.417
   48200             5.81008             -938.33
   48300             6.73558            -936.658
   48400             2.85668            -942.737
   48500             5.67904            -938.996
   48600             2.88977            -944.381
   48700             3.75467            -942.306
   48800             6.07346            -939.248
   48900             3.86257            -942.672
   49000           -0.629366            -948.796
   49100             2.11072            -945.804
   49200            0.977873            -946.759
   49300            -1.22728            -950.493
   49400            -3.75122            -955.852
   49500            -4.36427            -957.376
   49600            -5.46774            -960.888
   49700            -5.16503            -960.011
   49800              -6.525            -961.616
   49900            -8.08135            -963.613
   50000            -5.61399             -959.54
   50100            -4.84668            -957.937
   50200            -2.72868            -955.107
   50300             -2.2304            -953.971
   50400            -1.04058            -951.727
   50500            -2.69516            -953.222
   50600            -1.16083            -950.409
   50700            -2.57014            -951.649
   50800          -0.0482694            -947.383
   50900             1.72973            -946.503
   51000             4.37994            -941.757
   51100            0.827633            -945.983
   51200           -0.216354            -947.825
   51300             1.60968            -944.962
   51400            0.855674            -946.423
   51500            -2.55196             -951.56
   51600            -3.80425            -954.461
   51700            -4.06341            -955.302
   51800            -8.37878            -959.023
   51900            -10.4943            -961.862
   52000            -9.09625            -960.177
   52100            -5.62275            -956.958
   52200            -5.24644            -955.912
   52300            -6.04184            -957.604
   52400            -2.36729            -950.134
   52500            -3.46362            -952.216
   52600            -3.05539            -951.882
   52700            -2.57782            -952.373
   52800            -0.73221            -951.515
   52900           -0.548235            -950.761
   53000            -3.59663            -956.843
   53100            -3.45386            -956.588
   53200            -1.95084            -954.368
   53300            -4.65777            -957.664
   53400             -8.8634            -963.648
   53500            -6.60146            -959.377
   53600            -8.36486            -961.972
   53700            -6.61447            -959.774
   53800            -4.11343            -956.682
   53900             -3.3807            -954.781
   54000            -1.96853             -952.87
   54100             4.68749            -942.717
   54200             9.27524            -935.443
   54300              7.1513            -938.536
   54400             5.01482             -941.34
   54500             4.35183            -942.852
   54600             5.54905            -941.892
   54700             6.70381            -939.467
   54800             7.24201              -938.1
   54900             10.0379            -934.944
   55000             13.6793            -928.814
   55100             13.4709            -928.821
   55200             13.9261            -929.189
   55300             10.3204            -934.771
   55400              8.6534            -936.785
   55500             9.20747            -935.241
   55600             9.94786            -935.194
   55700             11.8459            -933.849
   55800              14.843            -928.336
   55900             12.3067             -930.62
   56000              11.141            -931.717
   56100             11.0676            -933.806
   56200             12.0831            -934.459
   56300             13.8858             -930.78
   56400             13.6498            -929.959
   56500             14.9799            -929.279
   56600              11.365             -934.94
   56700              11.539            -934.387
   56800             15.0522             -928.25
   56900             12.3364            -932.179
   57000             10.1664             -936.47
   57100             12.9988            -933.013
   57200             10.3804            -936.925
   57300             8.80924            -942.006
   57400             11.7688             -938.33
   57500             14.6924            -933.985
   57600             14.9609            -932.821
   57700             12.6321            -936.924
   57800             10.3151            -938.541
   57900             13.6782            -934.501
   58000             13.4874            -934.869
   58100             14.4448            -931.889
   58200             13.6403            -930.401
   58300             14.1946            -930.948
   58400              14.318            -930.295
   58500             15.7571            -929.318
   58600             14.5638            -930.438
   58700             17.3105            -926.565
   58800             13.0424            -933.876
   58900             9.20838            -938.543
   59000              9.6751            -938.177
   59100             6.38968            -942.447
   59200             4.30352            -944.784
   59300             1.99185            -947.376
   59400             4.16476            -943.289
   59500             5.40983            -940.821
   59600              6.1297            -939.749
   59700              9.0862            -934.224
   59800             7.09355            -936.105
   59900             8.16271            -934.232
   60000             9.55651            -932.661
   60100             9.38744            -931.265
   60200             12.5391            -928.005
   60300             6.85408            -936.285
   60400             5.37534            -938.991
   60500              5.5846            -937.902
   60600             3.62288            -942.285
   60700              5.4593            -940.625
   60800             8.77758            -935.351
   60900             5.34933            -939.799
   61000             8.80366            -934.102
   61100             9.31438            -935.831