       0             15.6353            -947.799
     100             21.3744            -935.936
     200             20.3582            -937.602
     300             23.9006            -930.642
     400             26.0001            -925.155
     500             23.4264            -930.474
     600             22.5851            -930.086
     700             20.5212            -931.031
     800             19.1597            -932.354
     900             18.3396            -934.047
    1000             16.2604            -934.913
    1100             19.0509            -931.355
    1200             21.9437            -927.405
    1300             23.9424            -924.042
    1400             22.8498            -924.235
    1500             22.4715            -923.472
    1600             24.5081            -918.529
    1700             20.6547            -923.878
    1800             20.5735            -923.107
    1900             17.2002            -928.114
    2000             18.0568            -927.773
    2100             18.1675            -927.641
    2200             14.4732            -932.868
    2300             15.6443             -932.14
    2400             18.1801            -927.801
    2500             13.3393            -934.465
    2600             16.1713            -929.727
    2700             23.7853            -918.702
    2800             20.6624            -920.737
    2900             20.8436            -920.376
    3000             14.8182            -929.264
    3100             19.5506            -919.864
    3200             20.8281            -917.265
    3300              20.063            -919.449
    3400             20.2027             -916.51
    3500             20.7273            -915.831
    3600             21.3169            -913.321
    3700             17.8512            -918.828
    3800             17.2837            -920.051
    3900             14.5643            -924.662
    4000             18.4508            -921.766
    4100             17.1659            -921.508
    4200             18.7724            -918.702
    4300              19.019            -917.417
    4400             21.3428             -915.94
    4500             20.4978             -916.18
    4600             19.6682             -919.71
    4700             17.7762            -921.228
    4800             11.8298            -928.273
    4900              14.468            -924.667
    5000             11.8115             -929.08
    5100             9.29974            -931.137
    5200             13.8417            -924.908
    5300             14.1314            -922.642
    5400             14.7351            -919.337
    5500             12.7944            -923.603
    5600             14.3925            -920.463
    5700             13.7531            -919.912
    5800             11.7798            -922.145
    5900             13.1929            -917.946
    6000             12.1859             -918.54
    6100              4.5277            -931.065
    6200             3.93914            -932.509
    6300              5.8192            -927.834
    6400             4.46678            -929.943
    6500             6.94526            -925.727
    6600             8.63732            -920.867
    6700             10.1412            -918.159
    6800             8.44346            -920.353
    6900             8.17979            -919.578
    7000             11.2629            -913.585
    7100             8.31472            -917.091
    7200             7.78613             -915.52
    7300             9.63307            -914.434
    7400             10.4921            -913.168
    7500             12.9443            -908.462
    7600              11.695            -910.932
    7700             9.26187            -914.872
    7800             13.0343            -908.619
    7900             15.2758            -903.545
    8000             13.9019            -905.004
    8100             16.4431            -902.353
    8200             15.1397            -905.065
    8300             17.4154            -901.195
    8400             17.7504            -899.182
    8500             16.8656            -902.213
    8600             13.8569            -904.826
    8700             15.1519            -901.284
    8800             15.6935            -900.369
    8900             14.1393            -900.276
    9000             13.8212            -900.417
    9100             12.7581            -899.663
    9200             12.0213             -900.53
    9300             11.6366            -901.415
    9400             10.9673            -902.356
    9500             9.65575            -906.062
    9600             10.5312            -905.938
    9700             7.98897            -908.683
    9800             8.64212            -908.206
    9900             8.98024             -905.16
   10000             10.9492            -899.368
   10100             6.29458             -905.15
   10200             3.97465            -909.527
   10300             5.49928            -906.948
   10400             7.39272            -904.671
   10500             5.12924            -908.464
   10600             7.22566            -903.336
   10700             5.84177            -905.361
   10800              6.1024            -904.877
   10900             9.96445            -898.673
   11000             14.3405            -891.879
   11100             16.2118            -887.882
   11200             18.8412            -883.863
   11300             19.4424            -883.593
   11400             20.4199            -880.071
   11500             25.4741            -873.437
   11600             24.9487            -874.082
   11700             24.4064            -875.488
   11800             19.8948            -881.421
   11900             21.3133            -879.165
   12000             23.9176            -874.077
   12100             15.9213            -887.956
   12200             14.2392            -892.402
   12300             14.0694                -893
   12400               13.25            -896.159
   12500             10.5633            -897.629
   12600             9.88476            -897.824
   12700             9.57832            -898.312
   12800             11.9342            -894.459
   12900             18.0523            -883.606
   13000             17.9068            -882.208
   13100              19.978             -878.56
   13200             17.8106            -879.153
   13300             21.7968            -873.435
   13400             23.3498             -872.29
   13500             19.9977            -876.737
   13600             17.6179            -880.806
   13700             16.9951            -881.046
   13800             18.8676            -876.372
   13900             17.6954            -877.843
   14000             13.4058            -884.511
   14100             9.56951            -887.726
   14200             6.73769            -894.074
   14300             4.25645            -897.652
   14400             6.00789            -894.921
   14500             7.41865            -893.123
   14600             10.1628            -888.059
   14700             12.1548            -887.742
   14800             9.38054            -892.113
   14900             9.64085            -889.955
   15000             9.45388            -891.443
   15100             10.0631             -889.39
   15200             9.52619            -890.099
   15300             12.3366            -885.614
   15400             11.4365            -887.875
   15500             6.45033            -895.365
   15600              5.0136             -897.12
   15700             8.28843            -891.133
   15800             8.25428            -889.709
   15900             7.12068            -892.987
   16000             8.30888            -890.793
   16100             7.45009            -891.997
   16200             3.57669            -897.491
   16300             3.84142            -896.423
   16400             2.92083            -898.744
   16500             5.04804            -896.492
   16600             6.19193            -896.181
   16700              5.6607            -897.277
   16800             11.1945            -890.332
   16900             10.1385            -892.127
   17000              9.7632            -890.775
   17100             7.61188             -894.39
   17200             7.91064            -893.459
   17300             8.88438            -890.739
   17400              11.495            -885.628
   17500             11.2591             -888.62
   17600             8.51183            -893.164
   17700             9.80587            -890.897
   17800             9.34583            -891.536
   17900             8.97975            -891.973
   18000             9.64437            -890.599
   18100             6.39129            -894.314
   18200             8.38821            -891.583
   18300             12.0123            -884.633
   18400              16.331            -876.846
   18500             19.3903            -871.917
   18600             17.8229            -872.127
   18700             14.6118            -876.787
   18800             12.2391            -879.458
   18900             14.1302            -877.902
   19000             13.4854            -880.197
   19100             10.7603            -885.629
   19200             10.3096            -885.113
   19300             12.9423            -879.137
   19400             14.8675            -875.554
   19500             15.0936            -875.665
   19600             14.6521            -875.358
   19700             9.64812            -882.518
   19800             12.9055            -878.462
   19900             11.0477            -880.205
   20000             15.4313             -873.81
   20100             15.9907            -874.096
   20200              14.962            -875.768
   20300             13.8295            -878.812
   20400             14.2135            -878.559
   20500             7.72961             -889.62
   20600             7.71778            -889.879
   20700             9.19628            -888.821
   20800             4.37609            -894.784
   20900             1.90612             -896.78
   21000             5.65712            -890.751
   21100             8.11232            -888.821
   21200             9.23674            -887.723
   21300             10.5588            -886.608
   21400             11.2987            -885.223
   21500              9.2323            -888.734
   21600             7.82593            -889.668
   21700             7.23716            -891.667
   21800             7.83078            -891.202
   21900             7.00283            -891.507
   22000             6.03184            -893.991
   22100              7.2974            -893.623
   22200             5.26109            -894.913
   22300             5.93611            -894.654
   22400             3.47768            -897.632
   22500             4.32147            -897.994
   22600             2.86281            -898.671
   22700             5.33556            -892.744
   22800             7.18707            -889.564
   22900             7.42753            -889.026
   23000             4.94412            -892.394
   23100              5.1192            -891.327
   23200             6.63342            -887.962
   23300             6.91316             -888.07
   23400             7.25864            -888.245
   23500             7.07429            -888.866
   23600             9.00942            -885.504
   23700             7.91216            -887.044
   23800             6.39201            -889.105
   23900             3.23624            -891.785
   24000             1.54066            -895.276
   24100             2.31985            -896.417
   24200            -1.89249            -903.265
   24300            -2.55979             -903.84
   24400            -2.86398            -905.982
   24500            -3.18468            -906.146
   24600             -2.0622            -904.631
   24700            -3.30827            -904.544
   24800            -3.20332            -903.156
   24900            -3.15397            -904.994
   25000            -1.73748            -901.795
   25100            -1.74797            -902.135
   25200             1.52938            -895.762
   25300             4.03299            -891.017
   25400             2.62216             -892.36
   25500             2.07223            -893.615
   25600             1.29046            -896.035
   25700             1.54591            -894.612
   25800              1.2334            -895.777
   25900             1.11409            -897.125
   26000              4.1269            -890.808
   26100             4.01878            -889.291
   26200             3.20266            -889.214
   26300             4.00223            -888.376
   26400             1.21098            -892.398
   26500             0.75605            -893.896
   26600            -1.10995            -896.899
   26700            -2.02153            -898.806
   26800            -2.75848            -899.034
   26900            -3.20303            -899.875
   27000           -0.194074            -893.818
   27100              5.4449            -886.135
   27200             6.74139            -884.153
   27300             4.73494            -885.676
   27400             4.14052            -888.355
   27500             10.0947            -879.786
   27600             10.4371            -881.481
   27700             10.0855            -880.732
   27800             11.9985            -880.151
   27900             11.6723            -881.106
   28000             11.9704             -878.14
   28100             9.40023            -882.061
   28200              8.6555            -883.362
   28300             9.93577            -881.707
   28400             7.03257            -886.818
   28500            0.845268            -897.333
   28600             2.27597            -894.121
   28700             4.01587            -891.112
   28800             5.40489            -887.878
   28900             3.01544            -891.682
   29000             3.48083            -890.504
   29100             2.98987            -891.548
   29200             5.58099             -886.11
   29300             5.24178            -885.787
   29400             5.53347            -886.048
   29500             5.80322            -884.994
   29600             3.58727            -888.138
   29700             6.53491            -881.077
   29800             6.44056            -879.392
   29900             8.39963            -874.245
   30000             6.20987            -878.337
   30100               2.635            -884.061
   30200             3.19337            -884.425
   30300             4.60851            -881.119
   30400             3.97163              -879.7
   30500              4.8284            -878.572
   30600              3.4097            -876.982
   30700             1.73027            -880.784
   30800             1.18096            -882.385
   30900           -0.294319            -884.479
   31000             2.02034            -881.873
   31100            0.382238            -884.436
   31200             1.55393            -883.004
   31300             1.81012            -882.141
   31400             2.22697            -881.218
   31500              3.5528             -880.31
   31600            -1.95871            -888.163
   31700            -1.88232            -887.422
   31800            -4.01654            -888.825
   31900            -6.00717            -892.358
   32000            -1.93304            -885.128
   32100            -4.81784            -890.138
   32200             -8.3912            -895.427
   32300            -8.83402            -895.462
   32400            -6.45565            -890.166
   32500            -6.10965            -891.158
   32600            -5.86928            -889.828
   32700            -5.38006            -889.634
   32800            -5.72458            -889.281
   32900            -5.33749            -888.625
   33000            -4.87686             -887.79
   33100            -2.61669             -883.27
   33200             -4.2883            -885.869
   33300            -1.26439            -881.407
   33400            -7.06626            -889.029
   33500            -9.74991              -892.1
   33600            -6.84072            -886.882
   33700            -4.80393            -885.372
   33800            -8.39722             -891.18
   33900            -9.73627            -892.968
   34000            -9.03813            -891.494
   34100             -5.2738            -885.628
   34200            -4.43365            -883.185
   34300            -5.35942            -886.363
   34400            -3.37302            -883.837
   34500            -2.50758            -880.563
   34600            -2.35153            -878.237
   34700             -2.3154            -878.743
   34800            -3.73902            -881.477
   34900           -0.875116            -873.702
   35000            -1.35386            -875.277
   35100            -2.60173            -878.284
   35200           -0.467305            -875.297
   35300             -3.3239            -879.162
   35400            -5.80136            -883.257
   35500            -4.00087            -880.695
   35600              2.0989            -871.514
   35700             2.14599             -872.21
   35800             2.66997            -872.237
   35900             2.17607            -872.014
   36000            -1.31287            -877.317
   36100            -3.43959            -879.149
   36200           -0.773381            -873.584
   36300                1.35            -871.149
   36400            -1.53488             -876.77
   36500            -3.73875            -880.364
   36600            -7.47305            -885.436
   36700            -8.95074            -888.136
   36800            -9.32478            -888.211
   36900            -12.7111            -891.579
   37000            -11.5728            -891.335
   37100            -10.7497            -890.315
   37200            -8.26891            -885.582
   37300            -10.2433            -889.488
   37400            -8.37941            -884.684
   37500            -5.47221             -881.69
   37600            -4.42686             -878.51
   37700           -0.673337            -874.066
   37800             0.48129            -874.098
   37900             3.56131             -868.85
   38000             5.12917            -866.933
   38100             4.24307             -868.93
   38200              -2.158            -877.851
   38300             -5.3334            -882.625
   38400            -6.03514            -884.351
   38500            -7.87505            -886.363
   38600            -6.20831            -884.954
   38700            -3.80646            -881.598
   38800            -1.96918            -879.176
   38900             1.10626            -873.689
   39000            -2.62967            -879.566
   39100            -1.87235            -878.701
   39200            -2.68058            -880.376
   39300            -2.89604            -882.291
   39400            -2.38271            -879.964
   39500           -0.779615            -877.112
   39600             1.48668            -874.164
   39700             1.10321            -873.154
   39800             3.50369            -868.775
   39900             5.81435            -865.559
   40000             5.38807            -865.754
   40100             5.18749            -865.905
   40200             3.64448            -869.774
   40300              7.1524            -864.498
   40400             5.89776            -867.225
   40500             7.62747            -866.019
   40600             7.69997            -866.405
   40700             8.38668            -865.605
   40800             7.21466            -867.524
   40900             3.12496             -872.72
   41000            -1.17049             -879.55
   41100             1.29747            -876.862
   41200             1.81629            -874.849
   41300           -0.193883            -878.192
   41400             1.79121            -876.236
   41500            0.536244            -878.566
   41600             3.30864            -873.559
   41700              4.7192              -871.6
   41800             2.06216            -875.507
   41900             4.20805            -872.629
   42000              2.3227            -875.686
   42100             -0.8459            -880.334
   42200            -1.60642            -880.646
   42300           -0.557896            -878.702
   42400            -1.35835             -880.94
   42500             2.72146             -874.33
   42600              3.2225            -872.339
   42700             5.00205            -867.463
   42800             1.59245            -872.087
   42900            -1.44745            -877.896
   43000            -1.74725            -880.063
   43100           -0.556063            -879.796
   43200            0.725673            -877.797
   43300            -3.39087            -884.402
   43400             -2.6112            -882.026
   43500            -3.95764            -884.426
   43600            -3.91319            -883.381
   43700            -2.27156            -880.163
   43800             -0.8922            -877.999
   43900              2.7948            -871.402
   44000             3.09433            -870.956
   44100             3.12444            -871.613
   44200             1.74894            -873.887
   44300             -1.3772            -881.007
   44400            -1.70832            -882.734
   44500             -3.6586            -886.737
   44600            -4.60042            -888.592
   44700            -4.23754             -888.06
   44800            -4.21091            -888.436
   44900            -8.11073            -893.393
   45000            -9.14729            -896.155
   45100             -8.7389            -894.655
   45200            -7.97668            -892.831
   45300            -6.30497            -890.528
   45400            -2.90022            -887.253
   45500            -3.52506            -889.925
   45600            -3.04563            -888.727
   45700            -5.55429            -892.905
   45800            -5.40262            -893.014
   45900            -5.82042            -890.938
   46000            -5.39019            -889.665
   46100            -5.58899            -889.184
   46200            -5.99991            -889.495
   46300            -6.18444            -888.937
   46400            -7.48733            -890.725
   46500            -5.82998            -890.202
   46600            -5.90313              -889.6
   46700            -1.00565            -881.777
   46800            -5.10748            -888.937
   46900              -6.137            -888.949
   47000            0.973038            -878.528
   47100            -2.03291             -884.09
   47200            -2.21347            -884.968
   47300            -2.04184            -883.609
   47400            -3.16455            -885.282
   47500            -3.90247            -885.291
   47600            -3.51493             -884.85
   47700            -5.78155            -888.308
   47800            -6.32816            -889.339
   47900             -8.4206            -894.245
   48000            -8.72145            -895.177
   48100            -4.74703            -889.252
   48200            -7.90472            -894.054
   48300            -6.21656            -891.885
   48400             -7.4831            -893.862
   48500            -4.38948            -888.817
   48600            -3.48744            -888.814
   48700            -3.86654            -890.805
   48800            -6.66937            -893.297
   48900            -5.06439            -889.056
   49000             -5.8522            -891.247
   49100            -6.80697            -890.684
   49200            -7.37882            -891.616
   49300             -6.7234            -890.826
   49400            -7.26204            -891.093
   49500            -10.4466            -896.112
   49600            -12.5671            -900.353
   49700            -13.7113             -902.61
   49800            -15.0582            -903.308
   49900            -10.3314            -894.413
   50000            -11.7651            -898.664
   50100            -11.6821            -897.333
   50200             -12.757            -898.191
   50300            -14.8833             -901.88
   50400            -13.4564            -901.361
   50500            -17.1588            -906.935
   50600            -15.5202            -902.719
   50700            -14.2987            -901.098
   50800            -15.0445            -902.941
   50900            -13.6794            -900.033
   51000            -11.5317            -897.254
   51100             -14.266            -899.906
   51200            -14.9017            -899.222
   51300            -17.1313            -903.022
   51400            -13.2042             -895.81
   51500            -15.1452            -896.809
   51600             -15.354            -895.573
   51700            -11.9243            -891.466
   51800            -14.1976            -894.387
   51900            -15.4564            -896.032
   52000             -16.022            -897.707
   52100            -12.4054            -891.891
   52200            -14.5227            -896.449
   52300            -11.2336            -892.061
   52400            -10.1874            -890.587
   52500            -5.30748            -882.988
   52600            -5.65179            -882.803
   52700            -7.00715            -882.819
   52800            -10.7963            -888.292
   52900             -14.553            -893.396
   53000            -12.6729            -890.354
   53100            -8.21484            -884.211
   53200            -8.04179            -883.378
   53300            -9.03244            -884.118
   53400            -11.4998            -887.617
   53500            -7.89253            -882.608
   53600            -8.87716            -885.256
   53700            -9.23328            -886.565
   53800            -8.81564            -886.648
   53900            -2.91729            -876.199
   54000            -4.33987            -878.117
   54100            -4.73857            -878.467
   54200            -5.99042             -879.91
   54300             -9.7222            -886.894
   54400            -12.2295            -889.452
   54500            -11.2943            -889.969
   54600            -14.5818            -894.956
   54700            -13.4754            -892.856
   54800            -13.7144            -893.714
   54900            -16.6135            -898.984
   55000              -15.55            -897.651
   55100            -14.9976             -896.93
   55200            -15.3609            -898.181
   55300             -18.277            -901.035
   55400            -15.9391             -897.34
   55500            -16.3876            -897.924
   55600            -17.7348            -901.791
   55700            -15.5785            -899.144
   55800            -14.1426            -895.423
   55900            -15.0016            -896.709
   56000            -15.0513            -896.749
   56100             -15.885            -898.006
   56200            -12.2487            -894.998
   56300            -15.4495            -900.139
   56400            -16.0748            -901.677
   56500            -16.5819            -901.004
   56600            -19.0016            -902.908
   56700            -20.0922            -904.511
   56800            -16.9865            -897.318
   56900             -19.472            -900.774
   57000            -20.2444            -903.488
   57100            -20.9522            -905.279
   57200            -21.2642            -906.869
   57300            -19.4643             -903.81
   57400            -15.8724            -896.498
   57500            -15.8592            -897.346
   57600            -16.5482            -896.994
   57700            -15.8687            -895.329
   57800            -16.7047            -894.915
   57900            -16.1741            -895.249
   58000             -15.122            -893.347
   58100            -16.6677            -894.876
   58200            -15.5903            -892.759
   58300            -15.3996            -892.804
   58400            -13.3142            -890.886
   58500            -12.5749            -889.709
   58600            -11.2215            -885.469
   58700            -9.99731            -884.089
   58800             -10.986            -885.869
   58900            -13.3759            -890.506
   59000            -12.4731            -890.708
   59100            -13.2339            -891.029
   59200            -12.7833             -888.43
   59300            -9.68385            -882.982
   59400            -13.1853            -888.449
   59500            -13.3518            -887.517
   59600            -13.6852            -888.678
   59700            -10.7212            -882.693
   59800            -11.5094            -884.503
   59900            -7.88639            -878.556
   60000            -9.02702            -882.676
   60100            -9.02787            -882.085
   60200            -9.75744            -882.807
   60300            -13.2854            -887.888
   60400            -11.2587            -884.104
   60500            -18.7624            -898.047
   60600            -16.7521            -895.514
   60700            -15.2038             -893.31
   60800            -15.8418            -894.322
   60900            -14.6533            -892.354
   61000            -17.5833            -895.518
   61100            -16.3777            -891.569