       0             20.1687            -918.788
     100             23.3777             -912.03
     200             22.4982            -910.805
     300             25.1945            -905.862
     400             21.0491            -907.406
     500             23.9736            -901.262
     600             25.7479            -897.921
     700             23.8569            -901.731
     800             25.1522            -899.629
     900             27.4871            -897.193
    1000             25.5311             -898.24
    1100             24.2648            -899.069
    1200             25.6459            -897.848
    1300             26.3127            -897.041
    1400             27.3439            -893.854
    1500             28.2314            -894.606
    1600             30.2469             -891.88
    1700             31.9018            -888.466
    1800             30.8675            -884.807
    1900             31.1616            -883.526
    2000             30.8097            -882.638
    2100             28.9233            -884.734
    2200             29.1255            -885.229
    2300             29.5485            -881.952
    2400              26.957            -882.976
    2500             22.8381            -890.901
    2600             21.5612            -893.356
    2700             21.7264            -891.036
    2800             24.0307            -886.492
    2900             23.2787            -885.345
    3000             24.2782            -882.464
    3100             25.1888            -881.441
    3200             26.9021            -877.552
    3300             28.6471            -877.526
    3400             27.4753            -881.472
    3500             23.1264            -888.791
    3600             24.6559            -884.436
    3700             24.7436            -881.471
    3800             25.2748            -884.651
    3900             25.8558             -882.83
    4000              23.149            -887.083
    4100             25.3671            -884.063
    4200             25.9565            -881.456
    4300             27.6307            -881.065
    4400               24.68            -885.224
    4500             24.8586            -884.314
    4600             23.6056            -885.052
    4700             21.3904            -888.517
    4800             19.8094            -891.786
    4900             19.9261            -891.125
    5000             19.1319            -893.546
    5100             20.3237            -891.304
    5200             20.8401            -891.948
    5300             24.4999            -887.915
    5400             21.4853             -891.78
    5500             21.6067            -892.859
    5600             19.7968            -896.677
    5700             20.4104             -896.74
    5800             22.0783            -895.475
    5900             20.7394            -896.713
    6000             21.6352            -895.491
    6100             19.6432            -898.434
    6200             21.9205            -897.904
    6300             22.2975            -894.792
    6400             21.5169             -894.93
    6500              23.288            -890.621
    6600             23.1447            -891.054
    6700             22.9522            -890.216
    6800             22.8969             -891.74
    6900             23.5682            -890.383
    7000             24.6131            -885.481
    7100             24.7632            -885.626
    7200             22.6503            -890.025
    7300             23.0319            -889.237
    7400             23.0966            -887.445
    7500              25.003            -882.285
    7600             24.5356            -881.588
    7700             23.8618            -883.636
    7800             18.9441              -887.6
    7900             21.7846            -882.067
    8000             21.0775            -883.432
    8100             20.4048            -883.824
    8200             22.2384             -882.13
    8300             22.7221            -879.323
    8400             18.7702            -884.916
    8500              19.309            -883.736
    8600             19.5629            -880.076
    8700             19.3963            -878.608
    8800             19.7756            -877.956
    8900             16.3445            -883.282
    9000             12.3456            -890.157
    9100             12.5692            -887.137
    9200             11.8542            -885.915
    9300             13.0769            -883.525
    9400             11.3388            -886.699
    9500             12.4602            -884.304
    9600             13.5804            -881.726
    9700             12.4722            -882.944
    9800             15.1892            -879.511
    9900             17.2104            -877.076
   10000             16.0944            -877.926
   10100             15.1142            -882.381
   10200             15.2504            -883.068
   10300             14.8506            -883.712
   10400              13.484            -885.052
   10500             15.0266            -882.556
   10600             15.5961            -879.943
   10700             15.1396            -880.875
   10800              19.647            -871.902
   10900             23.4398            -866.688
   11000             20.4376            -871.702
   11100             20.1822            -869.349
   11200             20.5972            -866.621
   11300             23.1924            -862.016
   11400             21.7951            -864.174
   11500             20.2362            -868.943
   11600             21.4802            -867.799
   11700             21.6651            -866.142
   11800             23.2292            -862.668
   11900             23.8919            -859.918
   12000             24.3401            -858.633
   12100             28.1544            -851.495
   12200             31.1488            -847.481
   12300             30.0438            -846.109
   12400             32.5119            -840.869
   12500             30.4056            -845.529
   12600             28.4998            -848.718
   12700             27.2936            -849.942
   12800             28.6282             -849.13
   12900             28.4264            -850.435
   13000             29.0363              -848.8
   13100              28.316            -851.406
   13200             26.1101            -856.883
   13300             24.7722            -856.928
   13400             26.9291            -853.271
   13500             29.1653            -849.973
   13600             29.1233            -850.023
   13700             29.6173            -850.656
   13800             30.7196            -851.345
   13900             31.9596            -847.318
   14000             30.5829              -851.1
   14100             28.9536            -854.486
   14200             29.2723            -855.891
   14300             28.2235            -856.119
   14400             26.5713            -856.324
   14500             27.3972            -854.401
   14600             31.3647            -844.474
   14700             29.5524             -846.23
   14800             29.8191            -845.197
   14900             32.7529            -841.053
   15000             33.2262            -837.692
   15100             34.0611            -837.852
   15200             33.1538            -838.428
   15300             36.5315              -835.2
   15400             37.5013             -836.13
   15500             35.3969            -836.782
   15600             35.8999            -836.731
   15700             37.6279            -836.158
   15800             38.5626            -835.885
   15900             35.6421            -840.227
   16000             32.1008            -846.031
   16100             33.0084            -844.892
   16200             32.7196             -844.07
   16300             29.9496            -850.221
   16400             26.0862            -854.056
   16500             26.2039            -855.981
   16600             26.2312            -856.743
   16700             23.6604            -860.511
   16800              23.574            -860.077
   16900             21.9943            -863.106
   17000             25.1368             -854.28
   17100             20.3775            -862.222
   17200             22.2563            -859.753
   17300              26.091            -851.942
   17400             25.4564            -851.896
   17500             22.6317            -857.167
   17600             24.4087            -854.441
   17700             21.6242            -861.387
   17800             22.2251            -860.208
   17900             18.6328            -867.516
   18000             18.7246            -868.308
   18100              21.558            -862.414
   18200             24.6545             -857.57
   18300             24.6863            -858.818
   18400             26.8739            -853.642
   18500             26.8545            -851.825
   18600             32.6908            -839.278
   18700             31.8029            -840.821
   18800             33.9459            -834.739
   18900             34.7008            -830.094
   19000             34.7728              -827.9
   19100             33.5671            -832.627
   19200             32.7535            -834.901
   19300             30.6111            -840.348
   19400             28.4375            -844.642
   19500              31.993            -839.123
   19600              30.874            -839.748
   19700             29.9002            -842.704
   19800             29.4979             -843.61
   19900             31.8386            -841.573
   20000             32.4754            -841.647
   20100              31.448            -846.509
   20200             31.1883            -847.744
   20300             29.6872            -849.837
   20400             28.4334            -848.928
   20500             26.1519            -853.452
   20600             24.4271            -855.762
   20700             24.3893            -855.046
   20800             25.8163            -854.722
   20900             27.6147             -852.29
   21000             28.5481            -850.466
   21100             30.1279            -849.963
   21200              31.582            -846.487
   21300             31.7207            -845.893
   21400             31.6718            -845.462
   21500             30.8049             -845.29
   21600             29.1944            -848.971
   21700             29.8102            -847.974
   21800             29.5423            -848.158
   21900             30.2357             -846.31
   22000             27.5584            -847.787
   22100             25.5938            -847.787
   22200             26.4059            -847.167
   22300             21.6783            -856.319
   22400              22.263            -852.842
   22500             20.8179            -854.317
   22600             20.1641             -854.85
   22700             21.2771            -853.261
   22800             19.4506            -855.652
   22900             21.6399            -851.419
   23000             23.0294            -847.527
   23100             26.1685            -841.364
   23200             25.7317            -843.251
   23300                25.3             -843.67
   23400             26.1817            -841.657
   23500             23.6034            -842.803
   23600              25.802            -838.916
   23700             26.5079            -836.835
   23800             29.1279            -832.586
   23900             30.5263            -828.591
   24000             32.2732            -824.671
   24100             31.2797            -826.178
   24200             32.2569             -825.39
   24300              26.393            -835.239
   24400             24.5914            -837.892
   24500              23.297            -840.088
   24600             23.2213            -838.601
   24700             27.2513            -831.107
   24800             27.1269            -830.768
   24900             25.9604            -833.535
   25000             25.6398            -832.252
   25100             26.4339            -830.935
   25200             23.1844            -835.805
   25300             20.6857            -840.408
   25400             23.5469            -831.545
   25500             23.3345            -834.244
   25600             18.6826             -842.09
   25700             16.7283            -845.947
   25800             18.7953            -842.383
   25900             17.2076            -846.673
   26000             16.7021            -847.466
   26100             16.4477            -847.412
   26200             15.0296            -848.956
   26300             17.6852            -844.346
   26400             18.9739            -840.667
   26500             20.5044            -837.299
   26600             21.3512            -837.388
   26700             21.7254            -836.561
   26800             17.6519            -843.536
   26900             15.9008            -847.031
   27000             15.8228            -846.198
   27100             13.8661            -850.007
   27200             18.7786            -842.635
   27300              18.963            -844.075
   27400             16.8492             -847.32
   27500             16.7884            -847.371
   27600             16.5913            -845.882
   27700             19.2445            -839.467
   27800              23.157            -830.656
   27900             16.8475            -841.558
   28000             17.3418            -838.173
   28100              19.879            -836.384
   28200              17.189            -841.368
   28300             20.2988             -835.34
   28400             19.1319            -837.623
   28500             21.2745            -833.662
   28600             21.4085            -831.899
   28700             19.8925            -834.236
   28800             19.5376            -836.849
   28900             17.1173            -840.581
   29000             17.6132            -837.746
   29100              19.371            -836.477
   29200             18.8949            -838.098
   29300             19.4222            -836.782
   29400             21.5056             -834.48
   29500              23.903            -830.812
   29600             22.5383            -831.717
   29700             23.3909            -830.192
   29800             23.4426            -830.494
   29900             22.9784            -831.109
   30000             25.9202            -827.796
   30100             25.1095             -830.66
   30200             25.8167            -829.123
   30300             26.4348            -826.334
   30400             27.0142            -825.563
   30500             26.6443            -825.174
   30600             23.3069            -829.526
   30700             23.2365            -831.444
   30800             21.3967            -833.199
   30900             17.4387             -838.26
   31000             20.2997             -833.15
   31100             18.4346             -835.94
   31200             19.6516            -833.169
   31300             18.7149            -835.536
   31400             18.2614            -837.616
   31500             20.6998            -830.641
   31600             21.5143            -828.085
   31700              21.617            -824.973
   31800              21.374            -825.473
   31900             24.5548            -821.244
   32000             20.7023            -828.197
   32100             22.9849            -823.016
   32200             24.8606            -818.989
   32300             26.3576            -818.367
   32400             24.2335            -821.373
   32500             23.2024            -822.272
   32600             24.6575            -818.836
   32700              24.359             -818.18
   32800              25.977            -814.063
   32900             26.9122            -813.943
   33000             22.8973            -822.394
   33100             23.1639            -824.204
   33200             17.6238            -836.291
   33300             18.8927             -833.32
   33400             22.9123            -827.189
   33500             27.0512             -821.41
   33600             25.2236            -824.602
   33700             24.7652             -825.56
   33800             27.4025            -820.999
   33900             26.9541            -822.222
   34000             31.0687            -815.244
   34100                26.3            -823.287
   34200              26.521            -821.062
   34300               26.34             -821.74
   34400             26.4775            -819.694
   34500             26.6301            -819.323
   34600             25.8393            -820.003
   34700             23.5278            -824.302
   34800              23.056            -824.124
   34900              25.763            -816.719
   35000             29.5406            -812.367
   35100             27.0172            -815.691
   35200              24.767            -819.063
   35300             25.4702            -815.557
   35400             21.5496            -821.291
   35500             19.1227            -826.051
   35600             20.1678            -823.116
   35700             18.6324            -824.869
   35800             16.1635            -826.637
   35900             15.6831            -828.248
   36000             16.8269            -825.457
   36100             14.0421            -830.996
   36200             9.29392            -838.238
   36300             8.27832            -837.145
   36400             8.91934             -835.47
   36500             11.9187            -830.923
   36600             7.43043            -838.497
   36700             8.25975            -835.398
   36800             9.25003            -835.273
   36900             9.53184            -834.646
   37000             12.0925            -831.868
   37100             12.4108             -830.58
   37200             11.6259             -830.83
   37300             15.8011            -824.167
   37400             19.0489            -818.756
   37500             17.7679            -821.649
   37600             15.6288            -825.817
   37700             17.0226            -821.105
   37800             16.2014             -823.33
   37900             12.5669            -827.171
   38000             12.5934            -825.966
   38100             12.5323             -826.46
   38200             10.9589            -828.643
   38300              8.8423            -831.425
   38400              9.5509            -830.847
   38500             8.88923            -832.113
   38600             7.25846             -834.19
   38700             6.04998             -835.48
   38800             8.51621            -830.475
   38900             8.49806            -830.143
   39000             7.55201            -830.075
   39100             8.45879            -827.533
   39200             7.79584            -827.828
   39300             6.17994            -831.633
   39400             4.91384            -835.348
   39500              4.7081             -835.08
   39600              6.4416            -833.143
   39700             8.82779            -829.294
   39800             8.40852             -828.57
   39900             6.67943            -832.968
   40000             4.78208            -837.325
   40100             5.70694            -836.802
   40200             5.72387            -837.054
   40300             9.84547            -829.132
   40400             11.9481             -826.34
   40500             11.1314            -828.018
   40600             12.2308            -826.325
   40700             10.8418            -828.643
   40800             15.7204            -818.724
   40900             15.8136            -817.149
   41000              15.615             -816.87
   41100             14.9233            -816.592
   41200             15.9693            -816.056
   41300             15.6445            -815.844
   41400             14.9792            -815.953
   41500             12.1944            -820.821
   41600             13.0445            -820.187
   41700             12.6183            -822.819
   41800             9.06642            -829.182
   41900             9.42924            -827.706
   42000             11.1104            -822.939
   42100             11.9665            -821.749
   42200             14.0283            -815.335
   42300             15.5846            -812.366
   42400             15.4623             -815.19
   42500             13.0045            -820.056
   42600             11.7993            -821.878
   42700             11.7093            -822.472
   42800             9.79603            -823.472
   42900             12.0295            -818.493
   43000             13.0796            -816.871
   43100             11.0472            -821.044
   43200             9.64802            -823.505
   43300             10.3982            -821.792
   43400             12.3858            -819.189
   43500             12.9744            -819.839
   43600             12.9743            -818.705
   43700             9.71705            -824.088
   43800              12.284             -818.91
   43900             14.2312            -814.589
   44000             15.1444            -813.862
   44100             14.1943            -813.595
   44200             15.8208            -811.992
   44300             12.9044            -816.416
   44400             14.7824            -811.643
   44500             12.5489             -814.47
   44600             10.8983            -818.681
   44700             12.1422            -815.498
   44800             10.5733            -817.476
   44900             11.9577            -814.297
   45000              7.0732            -820.614
   45100              7.2642            -820.752
   45200             4.72177            -826.585
   45300             6.76745            -822.307
   45400             5.38282            -824.131
   45500             5.08868             -826.18
   45600             4.58369            -826.332
   45700             3.95192            -828.275
   45800             1.82941            -832.831
   45900             4.19299            -827.476
   46000             4.97229            -824.422
   46100             4.97249            -823.261
   46200             2.90131            -825.159
   46300            0.265321            -829.489
   46400             1.79189            -824.836
   46500             1.32536            -826.269
   46600             1.02492            -826.339
   46700            -1.05288            -829.997
   46800            -4.07948            -833.616
   46900             -3.6745            -833.501
   47000            -3.82302            -833.567
   47100            -3.55651            -832.211
   47200            -2.81988            -830.104
   47300            -5.43839            -832.045
   47400            -3.86097            -830.156
   47500            -2.68199            -827.941
   47600            -2.18511            -826.714
   47700            -1.89515            -825.941
   47800            -1.83012            -825.098
   47900            -1.56611            -824.698
   48000             2.29218            -821.262
   48100             1.52268            -821.862
   48200             1.55389            -821.797
   48300            -0.21656            -824.502
   48400            -1.66896            -826.791
   48500            -3.28391            -830.813
   48600            -0.40704            -824.696
   48700             -3.1825            -828.658
   48800            -4.09967            -830.034
   48900            -3.66906            -830.428
   49000           -0.908558            -822.868
   49100            -0.65785            -824.108
   49200            -0.45771            -824.138
   49300            -2.10128            -826.604
   49400             1.21152            -820.549
   49500            -1.57635            -825.985
   49600            -2.89871            -829.096
   49700            0.018462            -822.569
   49800           -0.701738            -824.645
   49900             2.19154            -819.807
   50000            0.612241            -822.851
   50100              2.5156            -820.154
   50200             2.53848            -819.253
   50300             1.06493            -821.396
   50400           -0.321628            -824.515
   50500            -0.67552            -825.323
   50600           -0.428457            -823.145
   50700            -1.87752            -827.335
   50800            -5.46468            -833.929
   50900            -6.14539            -835.967
   51000            -5.97157            -836.599
   51100            -7.08554            -837.995
   51200            -1.49496            -827.327
   51300           -0.264808            -825.673
   51400             0.36376            -825.296
   51500            -3.52649             -830.47
   51600              -3.934            -831.807
   51700          -0.0651229            -823.362
   51800            -2.32972            -828.167
   51900            -4.30952             -829.38
   52000            -1.78527            -825.049
   52100            -4.66188              -830.3
   52200            -5.95011            -832.515
   52300            -2.88497            -828.832
   52400            -3.25995            -831.921
   52500            -3.21555              -830.9
   52600            -5.69127            -835.678
   52700            -8.03713            -837.166
   52800            -4.15283            -829.922
   52900            -0.79831            -825.395
   53000           -0.108723            -824.117
   53100            -1.35268            -826.352
   53200           -0.305495            -824.506
   53300            0.498884            -822.807
   53400            -1.38817            -826.231
   53500              1.4676            -821.606
   53600             2.81903            -818.672
   53700             3.23228            -818.142
   53800             5.96504            -814.137
   53900             7.28213            -814.102
   54000             8.11154            -814.192
   54100               6.294            -817.962
   54200             6.35935            -817.358
   54300             8.00162             -812.88
   54400             8.99855            -810.097
   54500             11.0723             -807.16
   54600             14.0584            -800.374
   54700             12.0148            -803.355
   54800              13.844            -800.723
   54900             14.3551            -800.196
   55000             11.4166            -805.817
   55100             11.0762            -805.629
   55200             9.07252            -810.103
   55300             8.04043            -812.278
   55400             5.44602            -817.183
   55500             5.04178            -817.832
   55600              5.8669             -816.61
   55700             1.89457            -824.413
   55800             3.23634            -822.804
   55900             2.66081            -823.763
   56000             1.19893            -826.341
   56100             2.85726            -822.048
   56200           -0.467818            -827.246
   56300            -1.72079             -830.47
   56400            -1.33286            -829.669
   56500            -1.62365            -827.407
   56600            0.078786            -823.849
   56700            -1.06621            -824.423
   56800              2.6808            -818.094
   56900             1.93109            -818.679
   57000             2.91956             -815.84
   57100             3.04875            -817.168
   57200             3.57134            -816.392
   57300             1.71577            -819.432
   57400            0.712465            -821.459
   57500             4.60793            -814.923
   57600              5.0854            -814.915
   57700             5.05646            -814.977
   57800             5.30152            -814.773
   57900             7.13127             -811.03
   58000             5.15469            -815.533
   58100             4.89901            -815.927
   58200             7.43261            -812.584
   58300              10.028            -809.529
   58400             11.9838             -806.66
   58500             13.6178            -801.118
   58600             7.96191            -810.656
   58700             8.94714            -808.387
   58800             12.2235            -803.193
   58900             12.7548             -799.58
   59000             11.3805            -801.914
   59100              11.046            -806.911
   59200              15.147            -799.517
   59300             15.0685            -799.493
   59400             16.4951             -799.23
   59500             14.5246            -803.572
   59600             15.3981            -802.443
   59700             15.3244            -803.179
   59800             13.0521            -808.019
   59900             15.4949            -800.655
   60000             11.7837             -806.29
   60100             10.5349            -810.109
   60200              10.209             -811.81
   60300             15.4878             -802.35
   60400             14.7552            -803.824
   60500             14.3392            -804.245
   60600             14.3468            -806.028
   60700             11.9844            -808.633
   60800             9.40867            -811.797
   60900             8.67969            -812.062
   61000             7.45656            -815.177
   61100             7.80579            -813.183