       0             19.3345            -925.661
     100              20.997            -920.057
     200             21.5451            -917.389
     300             25.7467            -911.027
     400             24.6432            -917.154
     500              28.115            -913.555
     600             31.8778            -906.792
     700             33.0273            -904.374
     800             32.8813            -904.679
     900             30.2841            -908.163
    1000             29.7109             -907.58
    1100             29.9533            -907.829
    1200             33.0104            -900.749
    1300             36.2284            -893.117
    1400             34.8653            -893.124
    1500             33.8977            -892.262
    1600             30.4353            -895.893
    1700             32.3774            -893.534
    1800             33.4589            -891.284
    1900             32.5447            -893.368
    2000              36.407            -886.858
    2100             40.7747            -881.272
    2200              40.985            -879.612
    2300             38.6947             -884.96
    2400               37.91            -886.472
    2500             38.0334            -884.932
    2600             42.9187            -874.482
    2700             38.7983            -882.889
    2800             36.5079            -884.736
    2900             36.9929            -883.331
    3000             32.4224            -891.067
    3100             30.5066            -890.983
    3200              28.411            -894.002
    3300              28.667            -891.877
    3400             32.2935            -885.224
    3500             30.1969            -886.167
    3600             31.7569            -883.615
    3700             33.9631            -880.103
    3800             35.2129            -879.775
    3900             35.4963            -880.796
    4000              35.665            -879.203
    4100             38.0172              -876.1
    4200             36.7068            -879.454
    4300             39.8859            -872.874
    4400             36.4087            -875.338
    4500             34.5008            -878.033
    4600             34.5418            -878.295
    4700             32.2718            -881.559
    4800             32.8933            -880.347
    4900             32.1096            -881.125
    5000              33.563            -879.542
    5100             27.8965             -888.49
    5200             27.4528            -888.866
    5300             26.9586            -891.512
    5400             28.2617            -888.195
    5500             29.5009            -886.344
    5600             32.3297            -881.567
    5700             36.5753            -874.023
    5800             35.4335            -876.772
    5900             38.6591            -871.346
    6000              40.111            -870.414
    6100             37.7353            -874.847
    6200             37.0291            -876.115
    6300             32.2382            -883.238
    6400             33.4834            -880.559
    6500              32.658            -884.281
    6600             28.5334            -892.523
    6700             29.1562            -891.199
    6800             32.5276            -885.083
    6900             26.9374             -893.84
    7000             29.7501            -887.101
    7100             30.7999            -885.801
    7200             30.0926             -885.65
    7300             26.7573            -892.555
    7400             32.4345            -882.413
    7500             34.3698            -879.011
    7600             35.7036            -876.939
    7700             34.1978            -879.574
    7800             37.2008            -875.229
    7900             34.1192            -880.566
    8000             31.6918            -884.148
    8100             33.4837            -880.643
    8200             30.8418             -885.98
    8300             33.1619            -882.451
    8400              31.346            -884.263
    8500             30.0457             -885.47
    8600             28.5435            -887.657
    8700             28.9558            -886.455
    8800             30.7762             -884.68
    8900             26.3265            -890.078
    9000             31.7217            -879.201
    9100             32.2452            -880.144
    9200             31.4918            -883.797
    9300             31.6957            -882.965
    9400              31.456            -881.791
    9500             32.3826            -879.854
    9600             32.1352            -880.088
    9700             30.4419            -882.935
    9800             31.0892            -882.391
    9900             31.5206            -883.011
   10000             30.4894            -885.797
   10100             29.7785            -884.399
   10200             30.5059            -883.569
   10300             29.4267            -884.671
   10400             31.4811            -880.406
   10500             28.5595            -885.432
   10600             30.6306            -882.716
   10700              32.241            -880.826
   10800             33.3768            -881.036
   10900             33.8283            -878.318
   11000             31.7518            -880.189
   11100             32.7181            -875.835
   11200             33.6541            -875.127
   11300             34.4604            -873.836
   11400             34.9419            -871.718
   11500             32.5399            -874.115
   11600             37.6609            -865.378
   11700             35.7123            -867.679
   11800             35.0997            -868.186
   11900             35.0126            -867.167
   12000             34.0095            -865.106
   12100              33.193            -867.566
   12200             29.9307             -872.42
   12300             29.1849            -874.409
   12400             31.1468            -869.954
   12500             29.3003            -872.611
   12600              30.282             -870.99
   12700             30.9586            -869.644
   12800              30.036            -871.577
   12900             33.3464            -865.983
   13000             36.0785            -860.372
   13100             34.5025            -864.156
   13200             33.2487            -865.941
   13300             34.0889            -865.143
   13400             33.6638            -866.204
   13500             31.0314            -869.693
   13600             28.5466            -873.024
   13700             27.3958            -873.518
   13800             26.3498            -875.839
   13900             26.4219             -875.18
   14000             28.3016            -873.388
   14100             31.3648            -868.578
   14200             36.2733             -861.23
   14300             35.8511            -861.816
   14400              37.325            -859.126
   14500             40.0668            -853.643
   14600              38.652            -854.964
   14700             39.9364             -850.89
   14800             40.8097            -849.498
   14900              38.561            -850.929
   15000               35.33            -856.546
   15100             35.0567            -855.277
   15200             37.7396            -851.568
   15300             36.2382            -854.037
   15400             34.3447            -855.032
   15500             32.9661            -856.446
   15600             27.2984             -867.33
   15700             25.8765            -867.385
   15800             27.4186            -864.967
   15900              27.126            -865.728
   16000             25.9351            -868.964
   16100             31.2985            -860.401
   16200             28.5475            -865.583
   16300             26.0596             -870.31
   16400             21.0117            -877.997
   16500             23.4303            -872.005
   16600             21.6589            -874.633
   16700              20.729            -874.835
   16800             18.4884            -878.536
   16900             17.3814            -881.451
   17000             18.9018            -880.402
   17100             24.8096            -871.737
   17200             26.5173             -869.58
   17300             24.8306             -870.82
   17400             23.1538            -872.141
   17500              23.727             -870.13
   17600             25.1684            -867.127
   17700             19.8166            -876.896
   17800             21.8891            -872.961
   17900             20.3739            -875.155
   18000             21.8351            -870.544
   18100             23.7361            -866.839
   18200             25.8545            -861.641
   18300             26.7358             -860.29
   18400             24.8785            -863.653
   18500             23.8665            -866.096
   18600             24.1811            -865.423
   18700             25.1731            -862.001
   18800             21.1979            -869.911
   18900             23.8892            -867.784
   19000             22.5913            -870.709
   19100             23.8332            -868.025
   19200             25.0573            -866.919
   19300             23.6768            -869.361
   19400             22.5189            -871.946
   19500             22.0402            -872.249
   19600             24.1083            -866.603
   19700             26.7476            -862.658
   19800             23.4964            -865.127
   19900             22.3194            -868.307
   20000             22.6622            -867.329
   20100             21.9713            -866.961
   20200             20.8335            -869.017
   20300             22.6959             -865.05
   20400             26.4722            -859.692
   20500             25.2659            -860.421
   20600             22.8976            -862.117
   20700             22.6625            -862.377
   20800              24.783            -857.254
   20900             25.9761            -856.213
   21000             28.9217            -852.972
   21100             28.0385            -855.753
   21200             24.8879            -862.049
   21300             22.9409            -863.698
   21400             18.6601            -872.197
   21500             18.0716            -874.127
   21600             18.8527            -874.668
   21700             15.1956            -879.802
   21800              17.086            -874.804
   21900             17.0318            -872.521
   22000             19.1371             -869.58
   22100             22.2724            -862.737
   22200             24.4001            -859.301
   22300             25.5174            -856.013
   22400             24.8181            -856.253
   22500             25.6448            -853.005
   22600             24.5608            -855.031
   22700             22.5973            -859.413
   22800             21.8369            -861.811
   22900             17.3693            -869.458
   23000             15.0942            -874.809
   23100             13.2705            -878.644
   23200              13.293            -877.639
   23300             12.3505            -878.373
   23400             12.5459            -876.495
   23500             15.1876            -871.167
   23600             17.2063            -867.534
   23700             12.6392            -876.778
   23800             12.7503            -876.138
   23900             11.4822            -878.642
   24000             13.9786            -874.547
   24100             13.9094            -876.238
   24200              10.635            -879.605
   24300             10.7044            -881.618
   24400             10.2867            -883.459
   24500             12.0886            -880.217
   24600             12.5582            -877.762
   24700             11.2605            -880.313
   24800             12.7522            -878.708
   24900             14.9501            -875.391
   25000             15.0823            -875.379
   25100             15.1451             -874.95
   25200             16.0712            -872.194
   25300             16.5229            -871.155
   25400              16.454            -871.646
   25500              14.567            -875.188
   25600             12.5404            -879.104
   25700             9.71464            -884.669
   25800             10.3014              -883.9
   25900             12.2981            -881.567
   26000              12.933            -880.405
   26100              12.478            -880.927
   26200               14.03             -878.22
   26300              11.778            -880.715
   26400             9.62341            -882.748
   26500             14.9779            -873.491
   26600             14.3658            -872.609
   26700             16.8111            -867.965
   26800             17.2354            -867.979
   26900             16.0476            -869.318
   27000             19.4015            -863.831
   27100             19.4559                -865
   27200             16.7594            -868.546
   27300             17.5968            -868.294
   27400             15.5548            -870.647
   27500             15.5426            -871.559
   27600             18.4138            -865.825
   27700             15.9974            -871.314
   27800             18.1532            -867.755
   27900             16.5692             -870.36
   28000             12.2771            -876.816
   28100             13.3147            -875.993
   28200             14.5199              -873.9
   28300             13.0747            -876.833
   28400             15.3649            -872.167
   28500             18.1532            -866.504
   28600             19.0457            -862.705
   28700             18.1665            -864.817
   28800             24.0914            -853.649
   28900             24.9725            -851.851
   29000             22.9933            -854.992
   29100             23.0826            -853.606
   29200              22.167             -853.82
   29300             22.4763            -855.565
   29400             24.2136            -853.988
   29500             22.4484            -857.576
   29600             22.1702            -859.647
   29700             25.4912            -854.614
   29800             22.8379            -857.537
   29900             22.1126            -859.122
   30000             21.6713            -862.222
   30100             24.9256            -858.215
   30200             24.8868            -855.778
   30300             24.5795            -855.031
   30400             21.7952             -858.76
   30500             21.8603             -860.31
   30600             20.6797             -864.56
   30700             20.3918             -865.44
   30800             18.5094            -867.838
   30900             22.3077             -861.65
   31000             21.0111             -863.48
   31100             20.0583            -864.782
   31200             22.4672            -860.191
   31300             21.7915            -859.684
   31400               18.49             -864.65
   31500             18.1202            -867.634
   31600             15.3197            -873.245
   31700             20.5237             -863.43
   31800             23.9518            -855.051
   31900             21.5683            -859.352
   32000             18.6734            -864.979
   32100             19.3247             -863.41
   32200             17.3187            -864.394
   32300             15.7692            -864.926
   32400             15.5894            -865.048
   32500             14.4648            -864.502
   32600             15.7474            -861.094
   32700             13.6046            -866.575
   32800             14.0853            -865.372
   32900             15.5427            -865.957
   33000             15.2597            -867.161
   33100             16.9583            -863.262
   33200             17.7726             -863.54
   33300             16.6711            -865.049
   33400             18.0264            -860.645
   33500              19.688            -858.118
   33600             19.7103            -857.492
   33700             19.5635            -857.018
   33800             22.6421             -854.23
   33900             22.6089            -853.009
   34000             25.1579            -849.554
   34100              24.537            -850.035
   34200             22.2996            -854.334
   34300             20.5181            -857.717
   34400             20.7909            -856.598
   34500             20.0902            -859.296
   34600             18.0309            -860.453
   34700             16.8379             -863.45
   34800             17.1636            -861.707
   34900             17.5766            -861.444
   35000             18.1543            -861.042
   35100               16.64            -864.908
   35200             18.7329            -860.578
   35300             18.3831            -862.254
   35400             21.3555            -857.566
   35500             20.4202            -859.791
   35600             21.8473            -856.455
   35700             21.7316             -857.01
   35800             19.3645            -861.551
   35900             18.9312            -862.806
   36000             20.9032            -859.387
   36100             23.5473            -854.505
   36200             24.6306            -852.877
   36300             25.2174            -851.951
   36400             25.5118            -851.986
   36500             24.3074            -854.241
   36600             22.4723            -855.082
   36700             21.8644            -855.497
   36800             22.8696            -854.311
   36900             24.7786            -851.004
   37000             30.6238            -839.939
   37100             31.1141            -839.146
   37200             29.1428            -844.522
   37300              27.171            -846.369
   37400             27.1573            -845.605
   37500             24.7092            -848.972
   37600             26.9475            -843.927
   37700              24.073            -849.402
   37800             24.4031            -850.077
   37900             22.3981            -853.095
   38000             20.1724            -856.768
   38100             18.0329            -861.025
   38200             20.7759            -858.617
   38300             22.3053            -856.323
   38400             20.2602            -858.956
   38500             18.9535            -859.952
   38600             20.3875            -855.239
   38700             22.0761            -854.164
   38800             19.1222            -859.385
   38900               20.54            -857.942
   39000             21.2957            -858.994
   39100             24.6046            -852.623
   39200             23.4938            -854.929
   39300             22.0982            -858.796
   39400             23.2738            -857.353
   39500             21.5176            -859.165
   39600             19.6902            -863.495
   39700             15.4425            -868.516
   39800              13.483             -874.51
   39900             14.3071            -872.478
   40000             16.1229            -869.719
   40100             15.9394            -870.308
   40200             14.6887             -873.41
   40300             15.2473            -874.523
   40400             16.2776            -871.882
   40500              18.394            -867.392
   40600             17.1824             -869.43
   40700             13.6267            -873.892
   40800             9.63616            -879.218
   40900             6.65422            -884.429
   41000             6.90236            -882.516
   41100             5.69241            -883.389
   41200             8.43685            -879.138
   41300             6.84583            -881.405
   41400             5.93738            -882.801
   41500             2.86506            -888.392
   41600             3.71542            -889.592
   41700             2.22139            -892.109
   41800             2.04438            -891.689
   41900             2.89461            -890.608
   42000              2.2886            -890.485
   42100             4.24515            -888.404
   42200             4.85406            -887.938
   42300             1.46331            -892.795
   42400             1.48112            -893.504
   42500             1.92046            -892.125
   42600            0.753712            -891.496
   42700            -1.26574             -891.37
   42800           -0.561461            -889.029
   42900           -0.867021            -889.459
   43000            0.534509            -888.049
   43100             2.34404            -886.736
   43200             3.00726            -885.673
   43300           -0.613358            -892.145
   43400            -3.17204            -893.949
   43500             -2.4779            -892.823
   43600             1.45093             -886.63
   43700            0.859424            -887.321
   43800             4.94329            -880.706
   43900             1.97614            -885.016
   44000             4.48889            -880.126
   44100             4.47553            -880.305
   44200             4.13966            -877.951
   44300             4.16343            -879.809
   44400             6.24763              -876.6
   44500             7.61643            -875.725
   44600             6.67656            -877.435
   44700              6.9359            -877.836
   44800              6.9888            -878.363
   44900             7.53246            -876.808
   45000             7.85343            -876.812
   45100             13.0459            -871.072
   45200             14.7107            -869.683
   45300             13.9753            -871.801
   45400             14.9782            -868.186
   45500             13.9826             -869.26
   45600             11.3447            -872.293
   45700             10.8824            -873.029
   45800             12.6119            -869.775
   45900             10.4406            -872.274
   46000             9.30942            -875.772
   46100             10.5292            -873.804
   46200             10.6104            -875.824
   46300             7.60477            -879.081
   46400             7.30189            -879.167
   46500             3.88679            -884.011
   46600             4.25928            -883.474
   46700             6.35903            -879.193
   46800             6.95298            -878.731
   46900             7.86829            -879.163
   47000             7.78438            -877.892
   47100             5.51131            -881.172
   47200             6.62544            -878.416
   47300             7.16932            -879.382
   47400             6.89955            -879.963
   47500             5.41355            -884.303
   47600             8.96001            -878.033
   47700             12.5551            -871.568
   47800             11.7415            -872.302
   47900             15.6817            -864.429
   48000             14.2871            -865.448
   48100             13.0292            -867.166
   48200             13.3768            -865.574
   48300             12.7305            -864.949
   48400             11.4088            -868.195
   48500             10.9446            -866.214
   48600             10.8001            -866.283
   48700             9.99167            -865.796
   48800             11.8114            -861.778
   48900             13.3473            -860.499
   49000             14.6243            -859.673
   49100              13.673            -861.131
   49200             15.8012            -859.562
   49300             15.8031             -859.66
   49400             15.1844            -860.908
   49500             14.4644            -861.123
   49600             12.8555            -861.842
   49700             10.8777            -865.387
   49800             9.08741            -869.393
   49900             10.2545            -866.757
   50000             9.55873            -868.772
   50100             9.42421            -868.264
   50200             8.17266            -870.767
   50300             10.3789            -868.127
   50400             11.8665            -864.401
   50500             10.5531            -867.674
   50600             8.84269            -869.901
   50700             8.42427            -871.606
   50800             8.86576            -871.485
   50900              12.153            -867.066
   51000             11.0032            -868.723
   51100             9.14377            -870.415
   51200             6.43129            -872.738
   51300             7.72522            -870.667
   51400              7.6523            -871.763
   51500             4.80842            -876.284
   51600             4.82643            -875.655
   51700             7.21035            -871.826
   51800             6.10129            -872.587
   51900             9.06179            -868.785
   52000             10.0739            -866.911
   52100             9.30007            -867.326
   52200             10.6951            -866.554
   52300             10.3031            -868.016
   52400             10.5294            -868.109
   52500             11.1021            -866.036
   52600             13.9652            -862.787
   52700             13.3522            -864.434
   52800             13.6465            -862.889
   52900             13.8164            -860.533
   53000             10.2179            -863.876
   53100             7.53909            -867.437
   53200             8.47207            -864.862
   53300              8.7864            -865.759
   53400             9.89532            -865.895
   53500             9.12466            -866.775
   53600             10.6444            -863.222
   53700             15.1859            -858.409
   53800             13.1358            -861.933
   53900             13.3663            -862.906
   54000             13.7343            -861.822
   54100             16.9014            -855.062
   54200             12.0562             -863.57
   54300             14.6027            -858.286
   54400             16.3682            -855.847
   54500             17.9858            -852.634
   54600             17.0121            -852.664
   54700             14.6869            -854.585
   54800             12.4474            -858.001
   54900             7.68201            -865.822
   55000             7.88594            -866.573
   55100             8.10194            -865.986
   55200             6.44945            -867.667
   55300             7.90291            -865.169
   55400             7.91531            -865.607
   55500             6.17215            -870.613
   55600             6.93332            -868.678
   55700             6.32056            -870.052
   55800             7.43765             -868.44
   55900             6.15551            -870.543
   56000             6.74584            -867.665
   56100             5.85315            -866.764
   56200             2.46354             -870.11
   56300             4.08487            -866.832
   56400             6.98545            -863.561
   56500             8.45365            -861.506
   56600              8.0579            -864.333
   56700             10.0305            -859.618
   56800             9.38233            -859.774
   56900             10.3638            -856.749
   57000             7.31962            -861.791
   57100             8.28379            -859.068
   57200             7.62651            -860.361
   57300             8.49826             -861.17
   57400             8.24416            -862.175
   57500             8.59831            -862.242
   57600             7.10437             -863.57
   57700             7.99635            -860.797
   57800             10.2885            -857.247
   57900             9.16656            -861.169
   58000             10.5486            -858.658
   58100             10.3882            -858.961
   58200             10.2523            -859.561
   58300             10.4002            -858.005
   58400             12.9994            -853.953
   58500             13.7053            -852.407
   58600             12.2227             -854.82
   58700             12.5152            -855.256
   58800             12.7004             -856.45
   58900             13.6361            -854.634
   59000             15.6156            -850.446
   59100             16.5814             -847.68
   59200             14.7375            -853.676
   59300             17.0676            -850.274
   59400             12.3914            -856.973
   59500             13.9306            -855.551
   59600             14.7985            -853.113
   59700             14.5484            -854.057
   59800             13.6235            -856.155
   59900             14.8712            -855.082
   60000             16.2322            -850.003
   60100             14.4722            -851.688
   60200             13.5914            -852.555
   60300             15.9412            -848.758
   60400             13.1226            -853.127
   60500             16.1687            -848.644
   60600             15.7749            -848.798
   60700             15.0014             -847.83
   60800             13.6809             -850.47
   60900             16.6571             -845.45
   61000             14.4356            -848.386
   61100             20.4059            -837.448