       0           0         100      20.163           0     316.215     316.215   -2.66454e-15    9.65894e-15    9.65894e-15
     100         0.2     99.9571     20.6849    -865.099     316.079    -549.019    4.44089e-16    3.03091e-14    3.03091e-14
     200         0.4     99.7963    -5.32655    -838.109     315.571    -522.538   -2.43486e-14    3.85247e-14    3.85247e-14
     300         0.6     100.165     7.32687    -798.825     316.737    -482.087    7.32747e-15    4.75175e-14    4.75175e-14
     400         0.8     99.8934     -8.9692    -803.595     315.878    -487.717     2.9754e-14    5.21805e-14    5.21805e-14
     500           1     99.8087    -3.40967    -795.924      315.61    -480.314    1.35447e-14    4.30767e-14    4.30767e-14
     600         1.2     99.9907     11.7364    -773.722     316.186    -457.536    1.86517e-14    4.61714e-14    4.61714e-14
     700         1.4     100.141     13.5237    -757.649     316.662    -440.987    3.88578e-15    4.37428e-14    4.37428e-14
     800         1.6     100.057     1.59206    -782.214     316.394     -465.82    9.10383e-15    4.30767e-14    4.30767e-14
     900         1.8     100.045      4.9632    -790.397     316.359    -474.039     1.9984e-14    4.24105e-14    4.24105e-14
    1000           2     99.9375    -7.32179    -802.793     316.017    -486.776    1.53211e-14    6.21725e-14    6.21725e-14
    1100         2.2     99.9969    -2.07496    -782.359     316.205    -466.153    5.32907e-15    7.82063e-14    7.82063e-14
    1200         2.4     99.9569    -11.2327    -805.847     316.079    -489.768    8.11851e-15    6.12843e-14    6.12843e-14
    1300         2.6     100.036     10.2563    -783.969     316.329    -467.641    2.26485e-14    6.47815e-14    6.47815e-14
    1400         2.8     99.8399    -6.21901    -801.543     315.709    -485.835    9.38138e-15    4.45199e-14    4.45199e-14
    1500           3     100.065     5.07796    -774.259      316.42    -457.839    2.22045e-14    5.01821e-14    5.01821e-14
    1600         3.2     99.9867    -6.57164    -787.914     316.173    -471.741    1.21014e-14     5.4845e-14     5.4845e-14
    1700         3.4     99.8639    -3.60056    -787.633     315.785    -471.848    9.65894e-15    6.99441e-14    6.99441e-14
    1800         3.6     99.9494    -4.76575    -778.632     316.055    -462.576   -1.77636e-15    5.77732e-14    5.77732e-14
    1900         3.8     99.8617      5.2835    -775.924     315.778    -460.146    9.54792e-15    3.95239e-14    3.95239e-14
    2000           4         100    -6.78428    -784.858     316.216    -468.643   -4.44089e-15    2.93099e-14    2.93099e-14
    2100         4.2     100.041   -0.622123    -771.217     316.346    -454.871     2.9976e-14     3.9968e-15     3.9968e-15
    2200         4.4     100.037    -12.0547    -789.161      316.33    -472.831    2.65898e-14    7.92769e-16    7.92769e-16
    2300         4.6     99.9564    -1.37314    -784.857     316.077     -468.78    4.86694e-14    2.54796e-14    2.54796e-14
    2400         4.8     100.023    -2.89249    -781.496     316.287    -465.208    5.51781e-14    3.10862e-14    3.10862e-14
    2500           5     99.9674    -7.46561    -786.674     316.112    -470.562     6.9722e-14     3.9968e-14     3.9968e-14
    2600         5.2     99.8634    -2.96901    -783.822     315.783    -468.039     5.4623e-14    4.60326e-14    4.60326e-14
    2700         5.4     99.8669    -8.67904    -786.984     315.794     -471.19    5.88418e-14    5.50671e-14    5.50671e-14
    2800         5.6     99.8619    0.538032    -775.249     315.778    -459.471    6.40599e-14    4.61853e-14    4.61853e-14
    2900         5.8     99.9649    -5.89387    -785.995     316.104    -469.891    6.36713e-14    4.28546e-14    4.28546e-14
    3000           6     99.9814    -6.12318     -798.36     316.156    -482.204    6.37268e-14    3.33067e-14    3.33067e-14
    3100         6.2     99.9014     5.23944    -768.492     315.903    -452.588     7.7327e-14    1.73195e-14    1.73195e-14
    3200         6.4      99.926    0.902661    -765.598     315.981    -449.617    6.03961e-14    1.42109e-14    1.42109e-14
    3300         6.6     99.9623    -3.46978    -762.879     316.096    -446.784    7.06102e-14    3.06422e-14    3.06422e-14
    3400         6.8     100.018     1.61726    -756.748     316.273    -440.474    4.69173e-14    1.26565e-14    1.26565e-14
    3500           7     100.106     -8.9744    -774.485     316.549    -457.936     3.5083e-14   -6.77236e-15   -6.77236e-15
    3600         7.2     100.019    -5.09377    -764.946     316.274    -448.672    5.15143e-14   -1.00198e-14   -1.00198e-14
    3700         7.4     100.101    -12.4753    -770.506     316.535     -453.97    4.59632e-14   -1.54876e-14   -1.54876e-14
    3800         7.6     100.014    -8.01585    -763.761     316.259    -447.502    3.35287e-14   -1.72085e-14   -1.72085e-14
    3900         7.8     99.9849    -7.29772    -774.888     316.167    -458.721    4.15223e-14   -9.69363e-15   -9.69363e-15
    4000           8     99.9414    -2.56189    -783.136      316.03    -467.107    4.45893e-14   -2.75335e-14   -2.75335e-14
    4100         8.2     99.9567    -7.04935    -800.008     316.078     -483.93    6.00076e-14   -2.79776e-14   -2.79776e-14
    4200         8.4     99.9818    -5.57698    -782.048     316.157     -465.89    7.40519e-14   -3.65263e-14   -3.65263e-14
    4300         8.6     99.9086     3.12954    -766.001     315.926    -450.075    5.91749e-14   -3.56382e-14   -3.56382e-14
    4400         8.8     99.8469    -6.98009    -783.154     315.731    -467.423     5.9841e-14   -2.16493e-14   -2.16493e-14
    4500           9     99.9708    -5.56002    -778.505     316.123    -462.382    7.54397e-14   -2.35367e-14   -2.35367e-14
    4600         9.2     99.7937    -8.42358    -777.944     315.563    -462.381    7.43849e-14   -2.44249e-14   -2.44249e-14
    4700         9.4      99.956  -0.0230187    -764.947     316.076    -448.871    9.08162e-14   -3.82472e-14   -3.82472e-14
    4800         9.6     99.8636     1.17371    -767.134     315.784    -451.351    9.79217e-14   -4.00791e-14   -4.00791e-14
    4900         9.8     100.017     2.22412    -775.081     316.267    -458.814    9.28146e-14   -4.60743e-14   -4.60743e-14
    5000          10     99.9983     4.27801    -784.078      316.21    -467.869     1.0314e-13   -6.75016e-14   -6.75016e-14
    5100        10.2     99.9187     4.17775     -766.39     315.958    -450.432    9.26308e-14   -4.92939e-14   -4.92939e-14
    5200        10.4     99.9747   -0.860323    -776.285     316.135     -460.15    1.00586e-13   -2.63123e-14   -2.63123e-14
    5300        10.6     99.8871     1.11616    -783.293     315.858    -467.435     1.0375e-13   -2.35367e-14   -2.35367e-14
    5400        10.8     99.8014    -1.57112    -781.026     315.587    -465.439    9.46465e-14   -3.84137e-14   -3.84137e-14
    5500          11     100.155     2.60808    -789.157     316.706    -472.452    1.28494e-13   -3.41949e-14   -3.41949e-14
    5600        11.2      100.14     3.69074    -794.226     316.658    -477.569    1.47216e-13   -3.70814e-14   -3.70814e-14
    5700        11.4     99.7461     11.0625     -775.04     315.412    -459.628    1.53932e-13   -6.72032e-14   -6.72032e-14
    5800        11.6     100.015    -5.06229    -800.102     316.261     -483.84    1.66533e-13   -6.31717e-14   -6.31717e-14
    5900        11.8     99.9353    -5.41239    -795.378     316.011    -479.367    1.78968e-13   -6.52811e-14   -6.52811e-14
    6000          12     100.138    -2.05708     -783.08      316.65     -466.43    1.95288e-13    -7.4829e-14    -7.4829e-14
    6100        12.2     99.9418     -1.7714     -777.46     316.031    -461.428     2.0639e-13   -6.55032e-14   -6.55032e-14
    6200        12.4     100.052   -0.673296    -773.357      316.38    -456.977    1.80744e-13    -5.9508e-14    -5.9508e-14
    6300        12.6     100.014    -2.74649    -765.671     316.259    -449.412     1.8615e-13   -4.45199e-14   -4.45199e-14
    6400        12.8     99.9782   -0.829719    -757.205     316.146    -441.059    1.82715e-13   -4.73233e-14   -4.73233e-14
    6500          13     100.127    0.156814    -755.535     316.617    -438.917    1.49769e-13   -5.62779e-14   -5.62779e-14
    6600        13.2     100.068    -1.12886    -768.483     316.432    -452.052    1.55431e-13   -6.65856e-14   -6.65856e-14
    6700        13.4     100.017    -5.39682    -785.124      316.27    -468.854    1.44995e-13   -4.59632e-14   -4.59632e-14
    6800        13.6      99.766     2.79245    -774.361     315.475    -458.886    1.43885e-13   -4.15223e-14   -4.15223e-14
    6900        13.8     100.179    0.890696    -777.162     316.782     -460.38     1.4011e-13    -3.9968e-14    -3.9968e-14
    7000          14     100.047     6.66074    -764.951     316.364    -448.587    1.65923e-13   -3.36398e-14   -3.36398e-14
    7100        14.2     100.195    -6.85422    -777.572     316.832    -460.739    1.73694e-13   -1.85407e-14   -1.85407e-14
    7200        14.4     99.9118    -4.26642    -782.846     315.936     -466.91    1.69545e-13   -2.09138e-14   -2.09138e-14
    7300        14.6     99.8694    -8.24731    -782.692     315.802     -466.89    1.70752e-13   -7.21645e-15   -7.21645e-15
    7400        14.8     100.089    -5.68415    -777.755     316.497    -461.258    1.54099e-13   -1.59595e-14   -1.59595e-14
    7500          15     99.9296     1.36944    -768.901     315.992    -452.909    1.61315e-13   -3.37508e-14   -3.37508e-14
    7600        15.2      100.05    -5.73577    -772.911     316.373    -456.538    1.56097e-13   -1.45439e-14   -1.45439e-14
    7700        15.4     99.9355     7.00129    -762.227     316.011    -446.216     1.4666e-13   -1.99983e-14   -1.99983e-14
    7800        15.6     99.7517    -7.11459    -771.986      315.43    -456.556    1.44301e-13   -3.49998e-14   -3.49998e-14
    7900        15.8     99.8943    -12.4594    -776.007     315.881    -460.126    1.15991e-13   -3.68594e-14   -3.68594e-14
    8000          16     100.144    -2.69814    -774.803     316.671    -458.132    1.41331e-13    -3.4639e-14    -3.4639e-14
    8100        16.2     100.134    -5.50493    -774.041     316.638    -457.403    1.27218e-13   -4.93217e-14   -4.93217e-14
    8200        16.4     99.9113     1.40539    -759.292     315.934    -443.358    1.42122e-13   -6.12843e-14   -6.12843e-14
    8300        16.6      100.04    -1.56477    -770.268      316.34    -453.928    1.25455e-13   -5.59552e-14   -5.59552e-14
    8400        16.8      99.989    -5.58397    -780.246      316.18    -464.066    1.38112e-13   -6.77236e-14   -6.77236e-14
    8500          17     100.031    -7.02626    -780.064     316.313    -463.751    1.27676e-13   -7.84928e-14   -7.84928e-14
    8600        17.2     100.139    -2.30352    -783.323     316.655    -466.669    1.18239e-13   -7.83817e-14   -7.83817e-14
    8700        17.4     100.109    -1.75739    -788.501     316.559    -471.942    1.05471e-13   -8.92619e-14   -8.92619e-14
    8800        17.6     99.8117    -4.80049    -783.914      315.62    -468.295    1.14339e-13   -9.79217e-14   -9.79217e-14
    8900        17.8     100.129     2.74869    -771.344     316.621    -454.723    9.23706e-14   -8.18234e-14   -8.18234e-14
    9000          18      100.15      7.8417    -773.316      316.69    -456.625     9.0955e-14   -8.19345e-14   -8.19345e-14
    9100        18.2         100     2.88518    -781.107     316.215    -464.891    9.57845e-14   -6.63913e-14   -6.63913e-14
    9200        18.4     100.088    0.633612    -772.444     316.494     -455.95    8.33777e-14   -6.35048e-14   -6.35048e-14
    9300        18.6     99.9752    -1.94433    -773.864     316.137    -457.728    6.58362e-14    -4.4742e-14    -4.4742e-14
    9400        18.8     100.044  -0.0743174    -772.963     316.355    -456.608    7.66054e-14   -5.08482e-14   -5.08482e-14
    9500          19     99.9871     -2.0302    -781.411     316.174    -465.236    7.82707e-14   -4.40759e-14   -4.40759e-14
    9600        19.2      100.12     10.5957    -752.874     316.596    -436.278    6.82787e-14    -7.0291e-14    -7.0291e-14
    9700        19.4     99.9643    -2.49069    -761.645     316.102    -445.543    8.13793e-14   -5.01821e-14   -5.01821e-14
    9800        19.6     100.205     9.58247    -746.804     316.864     -429.94    8.11781e-14   -6.10085e-14   -6.10085e-14
    9900        19.8     99.8965     1.00851    -758.047     315.888    -442.159    6.03961e-14   -6.04959e-14   -6.04959e-14
   10000          20     100.151    -3.67778    -768.653     316.694    -451.959    7.94365e-14   -7.74489e-14   -7.74489e-14
   10100        20.2     100.065     6.02582    -754.503      316.42    -438.083    8.61533e-14   -8.64864e-14   -8.64864e-14
   10200        20.4     99.9238    -6.25049    -781.856     315.974    -465.882    3.93019e-14   -9.22595e-14   -9.22595e-14
   10300        20.6     99.8903   -0.810619    -763.458     315.868     -447.59    2.03726e-14   -9.32587e-14   -9.32587e-14
   10400        20.8     100.326     5.56865    -755.641     317.245    -438.395    3.88578e-14   -1.13798e-13   -1.13798e-13
   10500          21     100.163      7.4315    -748.726     316.731    -431.995     9.4369e-15   -1.10134e-13   -1.10134e-13
   10600        21.2     100.163     7.00943    -760.084     316.731    -443.353     1.4988e-14   -1.27232e-13   -1.27232e-13
   10700        21.4     100.176   -0.579212    -778.246     316.771    -461.475   -1.11022e-14   -1.28619e-13   -1.28619e-13
   10800        21.6     100.121    -3.67259    -791.289     316.596    -474.692    1.16573e-14   -1.11411e-13   -1.11411e-13
   10900        21.8      99.951    -5.79118     -800.05      316.06     -483.99    1.88738e-15   -1.03584e-13   -1.03584e-13
   11000          22     99.8065     3.60193     -791.24     315.603    -475.636   -1.58484e-14   -1.05749e-13   -1.05749e-13
   11100        22.2     100.229    -3.71126    -812.163     316.938    -495.225   -5.32907e-15   -1.10745e-13   -1.10745e-13
   11200        22.4     99.9883     12.1327    -793.594     316.178    -477.416   -1.44329e-14   -1.19016e-13   -1.19016e-13
   11300        22.6     99.8933    -13.2186    -821.505     315.878    -505.627   -8.27116e-15   -1.19016e-13   -1.19016e-13
   11400        22.8     99.8371    -6.11523     -802.26       315.7     -486.56    1.44329e-15   -1.13409e-13   -1.13409e-13
   11500          23     100.089    -1.84641    -791.082     316.496    -474.586    1.07692e-14   -1.39666e-13   -1.39666e-13
   11600        23.2     99.9481     2.34424    -781.026     316.051    -464.975    3.21965e-15   -1.47438e-13   -1.47438e-13
   11700        23.4     99.7071    -5.13762    -788.467     315.289    -473.178    1.92069e-14   -1.29896e-13   -1.29896e-13
   11800        23.6     100.023    -6.17717    -789.531     316.287    -473.244     3.4639e-14   -1.25289e-13   -1.25289e-13
   11900        23.8     99.8677    -11.5268     -802.54     315.797    -486.743    5.22915e-14   -1.16004e-13   -1.16004e-13
   12000          24     99.8564     5.69818    -785.138     315.761    -469.377    4.07452e-14   -1.11022e-13   -1.11022e-13
   12100        24.2      99.909     4.15212    -787.933     315.927    -472.006      4.996e-14   -8.82627e-14   -8.82627e-14
   12200        24.4     99.9917    -8.11864    -795.179     316.189     -478.99    3.19744e-14   -7.56478e-14   -7.56478e-14
   12300        24.6     99.9757     1.38567     -775.29     316.138    -459.151    5.77316e-14   -7.61613e-14   -7.61613e-14
   12400        24.8     99.9154    -6.45258    -789.173     315.948    -473.226    4.72192e-14   -8.30863e-14   -8.30863e-14
   12500          25     100.075    -1.60165    -782.008     316.453    -465.554    5.24303e-14   -8.85958e-14   -8.85958e-14
   12600        25.2     99.6955      5.7654    -769.532     315.252     -454.28    3.67414e-14   -1.14353e-13   -1.14353e-13
   12700        25.4     100.008    -8.77275    -774.407     316.241    -458.166    4.40203e-14   -1.03806e-13   -1.03806e-13
   12800        25.6     100.055    -7.49853    -765.238     316.388     -448.85    5.70377e-14   -1.05915e-13   -1.05915e-13
   12900        25.8     99.9002     3.36321     -757.04       315.9     -441.14    6.93889e-14    -1.1946e-13    -1.1946e-13
   13000          26     100.105    -5.62058    -767.795     316.548    -451.247    7.89369e-14   -1.10911e-13   -1.10911e-13
   13100        26.2     99.8663     6.41876    -762.486     315.792    -446.694    7.34968e-14   -1.19821e-13   -1.19821e-13
   13200        26.4     100.136    -2.06905    -773.866     316.644    -457.222    7.36078e-14    -1.4766e-13    -1.4766e-13
   13300        26.6      99.911    -6.73168    -777.473     315.933    -461.539    6.32272e-14   -1.46216e-13   -1.46216e-13
   13400        26.8     99.9929    -8.66283    -778.365     316.193    -462.173    7.00551e-14   -1.64632e-13   -1.64632e-13
   13500          27      100.01      6.6062     -768.23     316.246    -451.984    6.13953e-14   -1.64313e-13   -1.64313e-13
   13600        27.2     100.031    0.278602    -789.506     316.315    -473.191    5.30687e-14   -1.64174e-13   -1.64174e-13
   13700        27.4      100.02    -2.06229    -782.242     316.278    -465.964    2.83384e-14   -1.65534e-13   -1.65534e-13
   13800        27.6     100.113    -7.75826    -780.528     316.572    -463.956    2.24265e-14   -1.85157e-13   -1.85157e-13
   13900        27.8     99.8278    -4.89319    -775.376      315.67    -459.706    2.57572e-14   -2.04059e-13   -2.04059e-13
   14000          28     99.9642    -6.52961    -775.965     316.102    -459.863    2.81997e-14   -2.29206e-13   -2.29206e-13
   14100        28.2     99.9365    0.518762    -779.097     316.014    -463.083    3.17524e-14   -2.24043e-13   -2.24043e-13
   14200        28.4     100.021     15.0658    -764.542     316.282     -448.26     3.5083e-14   -2.32925e-13   -2.32925e-13
   14300        28.6      100.07      -1.592    -790.801     316.435    -474.365    4.78506e-14   -2.13163e-13   -2.13163e-13
   14400        28.8     100.015    -5.38004    -789.227     316.263    -472.964    4.88498e-14   -2.25375e-13   -2.25375e-13
   14500          29     100.118     4.31707    -783.095     316.587    -466.508    4.66294e-14   -2.14495e-13   -2.14495e-13
   14600        29.2     100.079    -5.53012    -796.848     316.466    -480.382    6.90559e-14   -2.03615e-13   -2.03615e-13
   14700        29.4     99.7999     7.68452    -782.665     315.582    -467.083      7.001e-14   -2.10498e-13   -2.10498e-13
   14800        29.6     99.8853     10.7119    -789.039     315.852    -473.187    4.67959e-14   -1.90181e-13   -1.90181e-13
   14900        29.8     99.9791    -1.66795    -802.779     316.149     -486.63    4.57412e-14   -1.96065e-13   -1.96065e-13
   15000          30     100.077    0.258574    -793.828     316.459    -477.369    4.30767e-14   -2.04281e-13   -2.04281e-13
   15100        30.2     100.005     -6.2287    -793.281     316.232    -477.049     5.4623e-14    -2.0528e-13    -2.0528e-13
   15200        30.4     100.081   -0.796223    -796.923     316.471    -480.453     4.4853e-14   -2.13607e-13   -2.13607e-13
   15300        30.6     100.095    0.998623    -810.901     316.517    -494.384    6.30607e-14   -2.02283e-13   -2.02283e-13
   15400        30.8     100.183    0.731299    -811.791     316.794    -494.997    3.73035e-14   -2.09166e-13   -2.09166e-13
   15500          31     99.8745   -0.561001    -808.957     315.818    -493.139     3.7581e-14   -2.23932e-13   -2.23932e-13
   15600        31.2     99.9517    -1.35865    -807.369     316.062    -491.307    1.88183e-14   -1.99368e-13   -1.99368e-13
   15700        31.4     99.9216   -0.959726    -792.362     315.967    -476.395    1.95399e-14   -2.16216e-13   -2.16216e-13
   15800        31.6     100.097     6.77025     -781.45     316.521    -464.929    3.28626e-14     -2.221e-13     -2.221e-13
   15900        31.8     99.9907     12.0144    -777.112     316.186    -460.926    1.78607e-14    -2.4114e-13    -2.4114e-13
   16000          32     99.9288     1.37609    -779.209      315.99    -463.219    3.80251e-14   -2.42917e-13   -2.42917e-13
   16100        32.2     99.7961     9.88071    -766.709      315.57    -451.139    2.60209e-14   -2.55573e-13   -2.55573e-13
   16200        32.4     100.014    -3.74938    -776.738     316.259    -460.479    2.28706e-14   -2.48024e-13   -2.48024e-13
   16300        32.6     100.141     4.15531    -769.384      316.66    -452.724    2.18714e-14    -2.3892e-13    -2.3892e-13
   16400        32.8     99.9584    -8.81176    -772.155     316.084    -456.071   -1.12133e-14   -2.32259e-13   -2.32259e-13
   16500          33     99.9786    -8.38582    -765.787     316.147     -449.64   -6.66134e-15   -2.54241e-13   -2.54241e-13
   16600        33.2     99.9082    -8.96415    -766.651     315.925    -450.726    1.16573e-14     -2.367e-13     -2.367e-13
   16700        33.4     99.7741    -6.94389    -760.034     315.501    -444.534    1.53211e-14    -2.3459e-13    -2.3459e-13
   16800        33.6     100.048    -4.79185    -767.465     316.366    -451.099    3.26961e-14    -2.1827e-13    -2.1827e-13
   16900        33.8     99.9044    -2.22156    -780.957     315.913    -465.045    3.60822e-14   -2.12275e-13   -2.12275e-13
   17000          34     99.9482    -3.89849    -782.839     316.051    -466.788    5.01821e-14   -2.22222e-13   -2.22222e-13
   17100        34.2     99.8687   0.0886919    -769.372       315.8    -453.572    6.01741e-14   -2.33591e-13   -2.33591e-13
   17200        34.4     100.066    -7.19263    -777.579     316.423    -461.156    6.29635e-14   -2.34479e-13   -2.34479e-13
   17300        34.6     100.084     2.41018    -766.312      316.48    -449.831    6.79456e-14   -2.41807e-13   -2.41807e-13
   17400        34.8     100.067     6.83682    -764.478     316.427    -448.051    5.92859e-14   -2.41918e-13   -2.41918e-13
   17500          35     99.9986    -3.03463    -780.877     316.211    -464.666    6.39488e-14   -2.58682e-13   -2.58682e-13
   17600        35.2     99.8981   -0.406413    -772.463     315.893     -456.57    7.30527e-14    -2.5091e-13    -2.5091e-13
   17700        35.4     99.9894     -11.722    -786.612     316.182     -470.43    8.19345e-14   -2.56684e-13   -2.56684e-13
   17800        35.6     99.8936     1.23918    -772.333     315.878    -456.454    9.61453e-14   -2.44249e-13   -2.44249e-13
   17900        35.8     100.003    -2.44418    -771.581     316.224    -455.357    9.30367e-14   -2.58238e-13   -2.58238e-13
   18000          36     99.8544   -0.929431    -773.125     315.755     -457.37    9.50351e-14   -2.70228e-13   -2.70228e-13
   18100        36.2     100.031    -7.59305    -785.057     316.312    -468.745    9.79217e-14   -2.48968e-13   -2.48968e-13
   18200        36.4     99.9619    -5.87221    -791.236     316.095    -475.141    1.00586e-13   -2.27762e-13   -2.27762e-13
   18300        36.6     100.113     7.50134    -780.265     316.572    -463.693    1.28231e-13   -2.11692e-13   -2.11692e-13
   18400        36.8     100.102     4.38573    -775.265     316.536    -458.729    1.15394e-13   -2.17548e-13   -2.17548e-13
   18500          37     99.8059   -0.931139    -786.647     315.601    -471.046    1.25976e-13   -2.19602e-13   -2.19602e-13
   18600        37.2      99.908    0.604386    -779.158     315.924    -463.234    1.10689e-13   -2.20712e-13   -2.20712e-13
   18700        37.4     99.9526     -10.952    -791.832     316.065    -475.767    1.02029e-13    -2.1122e-13    -2.1122e-13
   18800        37.6     100.065    -6.58396    -786.487     316.419    -470.068    1.06248e-13   -2.24376e-13   -2.24376e-13
   18900        37.8     100.136    -8.28296    -793.587     316.647    -476.941    1.12521e-13   -2.10054e-13   -2.10054e-13
   19000          38     99.9852    -3.29779    -791.307     316.168    -475.139    1.10134e-13   -2.30704e-13   -2.30704e-13
   19100        38.2     99.9235     2.94406    -767.168     315.973    -451.195    9.59233e-14    -2.5413e-13    -2.5413e-13
   19200        38.4     100.206    -15.2582    -786.301     316.866    -469.435    8.26006e-14    -2.7256e-13    -2.7256e-13
   19300        38.6      100.16     4.77383    -760.268      316.72    -443.548    9.82547e-14   -2.75113e-13   -2.75113e-13
   19400        38.8     99.8333    -2.12236    -769.274     315.688    -453.586    1.04916e-13   -2.54907e-13   -2.54907e-13
   19500          39     99.9432     -4.4924    -767.483     316.035    -451.447    1.11244e-13   -2.78555e-13   -2.78555e-13
   19600        39.2     99.9411    -7.26653    -761.487     316.029    -445.458    9.55902e-14   -2.86215e-13   -2.86215e-13
   19700        39.4     99.9216    -7.76441    -765.539     315.967    -449.572    8.69305e-14   -3.05311e-13   -3.05311e-13
   19800        39.6     99.8619    -4.59072    -763.236     315.778    -447.457    9.36473e-14    -3.1064e-13    -3.1064e-13
   19900        39.8     100.326    -4.49239    -775.801     317.246    -458.555    8.43769e-14   -3.18634e-13   -3.18634e-13
   20000          40     99.9642     -9.2195    -794.618     316.102    -478.516     8.9706e-14   -2.95874e-13   -2.95874e-13
   20100        40.2     100.032   -0.850129    -785.653     316.316    -469.337    7.66054e-14    -2.8777e-13    -2.8777e-13
   20200        40.4     99.9699     1.97124    -771.486      316.12    -455.367    9.76996e-14   -2.94542e-13   -2.94542e-13
   20300        40.6     99.8693     5.79748    -758.067     315.802    -442.266    8.81517e-14   -3.09308e-13   -3.09308e-13
   20400        40.8      99.849    -2.09285    -769.316     315.737    -453.578    9.25926e-14   -3.01703e-13   -3.01703e-13
   20500          41     99.8856     -2.3233    -771.404     315.853    -455.551    7.81597e-14   -3.04708e-13   -3.04708e-13
   20600        41.2     99.9941    -12.6482    -788.385     316.196    -472.189     6.3255e-14    -2.8777e-13    -2.8777e-13
   20700        41.4     99.7966    -4.45827    -773.687     315.572    -458.115    7.53841e-14   -2.80775e-13   -2.80775e-13
   20800        41.6     100.213    -2.87769    -781.927     316.888     -465.04    7.63833e-14   -2.76223e-13   -2.76223e-13
   20900        41.8      100.14    -2.96445    -786.156     316.659    -469.497    7.75977e-14   -3.04368e-13   -3.04368e-13
   21000          42     100.094    -3.17691    -787.912     316.511    -471.401    8.65141e-14   -2.93654e-13   -2.93654e-13
   21100        42.2     100.093   -0.661166    -785.597     316.508    -469.089    6.61693e-14   -2.85993e-13   -2.85993e-13
   21200        42.4     99.8747    -6.81113    -783.494     315.819    -467.675    7.53841e-14   -2.89629e-13   -2.89629e-13
   21300        42.6     99.9693    -3.79641    -783.937     316.118    -467.819     7.4496e-14   -2.81886e-13   -2.81886e-13
   21400        42.8     100.139    -12.6728    -792.872     316.654    -476.218    8.06022e-14   -3.05533e-13   -3.05533e-13
   21500          43      99.893     2.61928    -772.101     315.877    -456.224    9.01779e-14   -2.97651e-13   -2.97651e-13
   21600        43.2     100.042     4.99118    -752.825     316.347    -436.479    1.29674e-13   -3.02425e-13   -3.02425e-13
   21700        43.4     99.9446    -7.25879    -766.989      316.04    -450.949    1.18461e-13   -2.95736e-13   -2.95736e-13
   21800        43.6     99.8668    -2.37161     -766.42     315.794    -450.626    1.31894e-13   -3.16303e-13   -3.16303e-13
   21900        43.8     100.037    -5.76617    -760.269     316.333    -443.936    1.29674e-13   -3.13527e-13   -3.13527e-13
   22000          44     99.9748     1.93687     -752.52     316.135    -436.385    1.44551e-13   -3.05558e-13   -3.05558e-13
   22100        44.2     100.063     2.38131    -756.058     316.413    -439.644      1.526e-13   -2.94431e-13   -2.94431e-13
   22200        44.4     99.9291     3.80266    -749.401     315.991     -433.41    1.37584e-13   -2.97873e-13   -2.97873e-13
   22300        44.6     100.057    -1.77941    -768.375     316.396    -451.979    1.18128e-13   -2.85771e-13   -2.85771e-13
   22400        44.8     100.172     13.7841    -759.581     316.758    -442.823    1.07359e-13   -2.60292e-13   -2.60292e-13
   22500          45      99.925      1.5547    -773.756     315.978    -457.778    1.23901e-13   -2.69243e-13   -2.69243e-13
   22600        45.2     100.002    -2.28822    -777.433     316.222    -461.211    1.19349e-13   -2.81108e-13   -2.81108e-13
   22700        45.4     100.263     4.56457    -767.071     317.046    -450.024    1.11022e-13    -2.6934e-13    -2.6934e-13
   22800        45.6     99.9328       6.025     -771.19     316.002    -455.187    1.22263e-13   -2.58293e-13   -2.58293e-13
   22900        45.8      100.02    -2.97522    -777.841     316.279    -461.562    1.21791e-13   -2.60458e-13   -2.60458e-13
   23000          46     100.015      3.1411    -764.946     316.262    -448.683    1.35891e-13   -2.80775e-13   -2.80775e-13
   23100        46.2     99.9686    -15.2132    -787.302     316.116    -471.187    1.22933e-13   -2.43916e-13   -2.43916e-13
   23200        46.4     99.9527    -13.2139    -781.769     316.066    -465.703    1.05194e-13   -2.54685e-13   -2.54685e-13
   23300        46.6     100.057     5.30742    -765.118     316.396    -448.722    1.17462e-13   -2.46678e-13   -2.46678e-13
   23400        46.8     100.022    -6.76835    -775.886     316.283    -459.603    1.18128e-13   -2.53353e-13   -2.53353e-13
   23500          47     100.061      1.2664    -762.157     316.407     -445.75    1.20903e-13   -2.75779e-13   -2.75779e-13
   23600        47.2     99.9602    -4.24477    -773.341     316.089    -457.252    1.05971e-13   -2.33702e-13   -2.33702e-13
   23700        47.4     99.9896    -4.62081    -788.777     316.182    -472.595    1.16129e-13    -2.3137e-13    -2.3137e-13