       0           0         100     14.0478           0     316.215     316.215    9.32587e-15     1.9984e-15     1.9984e-15
     100         0.2     100.029    0.899389    -930.632     316.306    -614.325   -6.18949e-15   -1.33227e-15   -1.33227e-15
     200         0.4     100.018     -8.9998    -916.692     316.271    -600.421    1.14908e-14   -8.21565e-15   -8.21565e-15
     300         0.6     99.8954    -10.0364    -899.379     315.884    -583.495    3.66374e-15    1.75415e-14    1.75415e-14
     400         0.8     100.039     7.80885    -866.196     316.337    -549.859    2.88658e-15    3.12805e-14    3.12805e-14
     500           1     100.045    -8.91812    -878.199     316.359    -561.841    1.55431e-15    3.90799e-14    3.90799e-14
     600         1.2     99.9579     2.80305    -869.396     316.082    -553.314     8.0283e-15    2.75335e-14    2.75335e-14
     700         1.4     99.9023     6.34891    -875.989     315.906    -560.082    1.42109e-14    2.16493e-14    2.16493e-14
     800         1.6     100.157     2.59686    -883.866     316.711    -567.156    2.63678e-14    4.44089e-16    4.44089e-16
     900         1.8     100.158     18.8662    -856.629     316.716    -539.913    1.65701e-14    8.88178e-15    8.88178e-15
    1000           2     99.9936     5.16584    -887.806     316.195    -571.611    2.25514e-14    3.61933e-14    3.61933e-14
    1100         2.2     99.9554     12.9336    -878.286     316.074    -562.212   -1.26565e-14    2.22877e-14    2.22877e-14
    1200         2.4     100.016     -2.4772    -887.504     316.267    -571.237   -3.05311e-16    2.68674e-14    2.68674e-14
    1300         2.6     99.8121     4.42797    -875.086     315.621    -559.465   -1.64313e-14    2.33147e-14    2.33147e-14
    1400         2.8      100.08     3.12438    -872.828     316.469    -556.359   -4.52416e-15    3.70814e-14    3.70814e-14
    1500           3     99.8948    -4.62055    -876.727     315.882    -560.845   -4.21885e-15    5.01821e-14    5.01821e-14
    1600         3.2     99.8555    -5.64671    -872.187     315.758    -556.429   -5.44009e-15    7.81597e-14    7.81597e-14
    1700         3.4     99.8916     -8.7947    -881.188     315.872    -565.316    1.15533e-14    1.01308e-13    1.01308e-13
    1800         3.6     99.8971    -1.57875    -879.841      315.89    -563.951    1.35586e-14    7.79377e-14    7.79377e-14
    1900         3.8     99.9873     10.6087    -872.221     316.175    -556.046   -1.33227e-15    1.05749e-13    1.05749e-13
    2000           4     100.171     21.7628    -851.454     316.757    -534.698    2.22045e-16    8.06022e-14    8.06022e-14
    2100         4.2      99.997    0.640805    -873.826     316.206    -557.621   -1.12688e-14     7.4156e-14     7.4156e-14
    2200         4.4     100.072    -10.4713    -889.307     316.442    -572.865   -3.33067e-15    5.26072e-14    5.26072e-14
    2300         4.6     99.8445     4.17934     -876.36     315.723    -560.637   -1.54599e-14    5.35127e-14    5.35127e-14
    2400         4.8     99.8129    -2.96313    -886.753     315.623     -571.13   -1.54876e-14    2.79776e-14    2.79776e-14
    2500           5     99.9549     6.61424    -877.453     316.072    -561.381   -1.27676e-14    3.59712e-14    3.59712e-14
    2600         5.2     100.037    -5.56184    -887.545     316.333    -571.213    6.66134e-16    4.24071e-14    4.24071e-14
    2700         5.4      99.954     2.80002    -876.943      316.07    -560.874    -3.9968e-15    5.05151e-14    5.05151e-14
    2800         5.6     99.9502     10.5487    -870.842     316.058    -554.785    4.60743e-15    5.37348e-14    5.37348e-14
    2900         5.8     100.076     7.84028    -879.675     316.456    -563.219    6.43929e-15    3.84692e-14    3.84692e-14
    3000           6     100.018     4.64767    -872.745     316.273    -556.472    1.02141e-14    2.52021e-14    2.52021e-14
    3100         6.2     99.9646     9.86248    -857.474     316.103    -541.371    3.08642e-14    3.61933e-14    3.61933e-14
    3200         6.4     99.7993    -2.51817    -877.535      315.58    -561.954    1.21014e-14    1.65423e-14    1.65423e-14
    3300         6.6     99.9622    -7.87841    -891.521     316.096    -575.426    1.39888e-14   -4.44089e-15   -4.44089e-15
    3400         6.8     100.134     6.37037    -877.381     316.638    -560.744   -1.86517e-14   -6.60583e-15   -6.60583e-15
    3500           7     99.9846     17.3618    -867.596     316.166     -551.43   -2.90878e-14   -1.61537e-14   -1.61537e-14
    3600         7.2     99.8822     11.0081    -871.722     315.843     -555.88    6.21725e-15   -6.16174e-15   -6.16174e-15
    3700         7.4      100.15     2.03958    -879.274     316.688    -562.586    3.21965e-15   -1.62093e-14   -1.62093e-14
    3800         7.6     99.9235       4.726    -876.886     315.973    -560.913     1.4877e-14   -4.03011e-14   -4.03011e-14
    3900         7.8     100.111    -2.14688    -886.908     316.567     -570.34    2.79776e-14   -2.37033e-14   -2.37033e-14
    4000           8     99.9511     -0.9862    -882.089      316.06    -566.029    2.53131e-14   -2.17604e-14   -2.17604e-14
    4100         8.2     100.005     10.7234    -869.673     316.232    -553.441    4.88498e-15   -1.70974e-14   -1.70974e-14
    4200         8.4     100.079     7.42564    -874.724     316.465    -558.259   -4.44089e-15    1.05471e-14    1.05471e-14
    4300         8.6     99.8562    0.216171    -872.511      315.76     -556.75    1.09912e-14   -1.13798e-14   -1.13798e-14
    4400         8.8      100.17     12.1237    -853.446     316.754    -536.693    2.62568e-14   -2.64233e-14   -2.64233e-14
    4500           9     99.7409     4.08719    -858.792     315.396    -543.396    3.68594e-14   -2.34257e-14   -2.34257e-14
    4600         9.2     99.8959    -1.12021    -873.707     315.886    -557.821    2.93099e-14   -2.70617e-14   -2.70617e-14
    4700         9.4      99.924    0.843162    -876.861     315.975    -560.886    3.67484e-14   -2.55351e-14   -2.55351e-14
    4800         9.6     99.8545     2.93592    -871.378     315.755    -555.623    6.01741e-14   -3.17524e-14   -3.17524e-14
    4900         9.8     99.9932    -11.0708    -893.083     316.193     -576.89    5.86198e-14   -2.93099e-14   -2.93099e-14
    5000          10     100.056   -0.713368    -879.329     316.391    -562.937    6.21725e-14   -3.10862e-14   -3.10862e-14
    5100        10.2     100.035     3.45357    -876.684     316.324     -560.36    5.77316e-14   -5.16254e-14   -5.16254e-14
    5200        10.4     100.113    -15.0474    -908.909     316.572    -592.337    5.90084e-14    -5.4623e-14    -5.4623e-14
    5300        10.6     99.9192     18.8647    -864.238     315.959    -548.278    4.75175e-14   -4.20775e-14   -4.20775e-14
    5400        10.8      100.09     14.7975    -873.135     316.498    -556.636    5.62328e-14   -1.82077e-14   -1.82077e-14
    5500          11      100.16    -1.07024    -891.267     316.722    -574.545    5.24025e-14   -2.80748e-14   -2.80748e-14
    5600        11.2     99.9255    -2.86557    -880.318     315.979    -564.339    4.36318e-14   -1.53211e-14   -1.53211e-14
    5700        11.4     100.023     12.4932    -865.654     316.287    -549.367    4.10227e-14   -4.19664e-14   -4.19664e-14
    5800        11.6     100.323     1.96709    -885.497     317.235    -568.262    3.98154e-14   -5.55112e-16   -5.55112e-16
    5900        11.8     100.035      13.348    -872.314     316.326    -555.988    2.85327e-14    1.04361e-14    1.04361e-14
    6000          12     99.9146     9.88078    -861.037     315.945    -545.091    3.68039e-14    1.22125e-14    1.22125e-14
    6100        12.2     100.244     3.69227    -856.849     316.985    -539.864     4.4853e-14    6.10623e-15    6.10623e-15
    6200        12.4     99.9454     5.48855    -869.279     316.042    -553.237    4.01901e-14    3.24185e-14    3.24185e-14
    6300        12.6      100.12    0.507468     -878.96     316.594    -562.366    3.84692e-14    2.82552e-14    2.82552e-14
    6400        12.8     100.018  -0.0966058    -879.975     316.273    -563.703    3.37508e-14    1.28786e-14    1.28786e-14
    6500          13     99.9852     7.48388     -884.82     316.168    -568.652    4.90719e-14    5.32907e-15    5.32907e-15
    6600        13.2     100.014    -3.00017    -896.085     316.259    -579.826    4.94604e-14    1.41154e-14    1.41154e-14
    6700        13.4     99.8698     9.18799    -869.164     315.803    -553.361    4.84057e-14    3.84137e-14    3.84137e-14
    6800        13.6     100.079    -13.8761    -888.431     316.464    -571.967    3.19189e-14    3.68594e-14    3.68594e-14
    6900        13.8     100.091    -3.85114    -884.226     316.501    -567.725    4.24105e-14    3.36398e-14    3.36398e-14
    7000          14     99.8432     4.78276    -878.757     315.719    -563.038    2.08722e-14     2.4647e-14     2.4647e-14
    7100        14.2     99.9375     3.16643     -882.72     316.017    -566.703    3.04201e-14    2.29816e-14    2.29816e-14
    7200        14.4     99.9804   -0.154291    -882.024     316.153    -565.871    4.76286e-14    1.70974e-14    1.70974e-14
    7300        14.6     99.9887     1.21216    -874.914     316.179    -558.735    4.41869e-14    2.38143e-14    2.38143e-14
    7400        14.8     100.002     5.10136    -859.094     316.221    -542.873    5.58997e-14    -1.1019e-14    -1.1019e-14
    7500          15     99.9321     2.59575    -866.771         316     -550.77    7.01661e-14    4.85723e-16    4.85723e-16
    7600        15.2     99.9362     1.49691    -886.719     316.013    -570.706    6.27276e-14    -2.4758e-14    -2.4758e-14
    7700        15.4     100.039    -7.31127    -889.057     316.339    -572.718    5.21805e-14   -3.19744e-14   -3.19744e-14
    7800        15.6       100.1     1.04791    -878.419      316.53    -561.888    3.86358e-14    -3.4639e-14    -3.4639e-14
    7900        15.8     100.034     6.11713    -882.073     316.322    -565.751    3.60822e-14   -4.01901e-14   -4.01901e-14
    8000          16     100.094     3.87281    -894.371     316.513    -577.859     2.9754e-14   -4.37428e-14   -4.37428e-14
    8100        16.2     99.9832     9.62763     -881.57     316.162    -565.408     5.4623e-14   -4.37428e-14   -4.37428e-14
    8200        16.4     99.9393     15.7225    -863.303     316.023     -547.28     3.9746e-14   -3.17524e-14   -3.17524e-14
    8300        16.6     99.7094    0.415556    -895.116     315.296     -579.82    1.55431e-14   -2.64233e-14   -2.64233e-14
    8400        16.8     100.087     4.63073    -886.078     316.489    -569.589    8.32667e-15   -3.34732e-14   -3.34732e-14
    8500          17       99.87     11.9232    -863.444     315.804     -547.64    2.90878e-14   -4.49363e-14   -4.49363e-14
    8600        17.2     100.119     5.58677    -870.561     316.593    -553.968    7.77156e-15   -3.67484e-14   -3.67484e-14
    8700        17.4      99.894   -0.372576    -879.712      315.88    -563.832    1.62093e-14   -4.14946e-14   -4.14946e-14
    8800        17.6     99.9137    -6.86242    -890.943     315.942    -575.001    1.66533e-14   -5.44009e-14   -5.44009e-14
    8900        17.8     99.7779     8.86297    -864.412     315.513    -548.899    4.79616e-14   -5.66214e-14   -5.66214e-14
    9000          18     99.9268   -0.801357    -881.729     315.984    -565.746    5.25413e-14   -6.56142e-14   -6.56142e-14
    9100        18.2     100.106     8.13596    -867.375      316.55    -550.825    5.06262e-14   -9.83658e-14   -9.83658e-14
    9200        18.4     100.117     3.25635    -872.617     316.586    -556.031     7.9825e-14   -1.16129e-13   -1.16129e-13
    9300        18.6     100.101      2.1672    -870.892     316.533    -554.359     8.4599e-14   -1.29785e-13   -1.29785e-13
    9400        18.8     99.9153    -8.76422    -889.557     315.947     -573.61    6.31717e-14   -1.16129e-13   -1.16129e-13
    9500          19     99.9848      24.438    -845.734     316.167    -529.567    6.36158e-14   -1.18128e-13   -1.18128e-13
    9600        19.2     99.8955    -2.37788    -878.172     315.885    -562.287    4.41869e-14   -8.81517e-14   -8.81517e-14
    9700        19.4     100.077    -5.04473    -875.249     316.459     -558.79    2.94209e-14   -8.62643e-14   -8.62643e-14
    9800        19.6     100.076    -5.63494    -880.625     316.456    -564.169    4.69624e-14   -9.64506e-14   -9.64506e-14
    9900        19.8     100.066    -5.58382    -889.164     316.423     -572.74    3.59712e-14   -1.05804e-13   -1.05804e-13
   10000          20     99.9965     -7.9841     -887.89     316.204    -571.686    4.88498e-14   -1.14353e-13   -1.14353e-13
   10100        20.2     100.109     7.35129    -869.429     316.561    -552.867    4.91829e-14   -1.24345e-13   -1.24345e-13
   10200        20.4     99.9179     3.43499    -873.007     315.955    -557.052    1.09912e-14    -1.0969e-13    -1.0969e-13
   10300        20.6     99.9419   -0.717149    -875.639     316.031    -559.608    2.88658e-14   -1.33782e-13   -1.33782e-13
   10400        20.8     100.071     13.6655    -862.318     316.438     -545.88    4.55191e-14    -1.2311e-13    -1.2311e-13
   10500          21       99.86     12.0449    -858.797     315.772    -543.024    5.24025e-14   -1.08635e-13   -1.08635e-13
   10600        21.2     99.9727      -6.398    -886.796     316.129    -570.667    4.17444e-14   -9.83658e-14   -9.83658e-14
   10700        21.4     99.9836     2.03253     -880.11     316.163    -563.947     7.4718e-14   -9.90319e-14   -9.90319e-14
   10800        21.6     99.9696     5.42426    -878.347     316.119    -562.228    1.02474e-13   -7.61613e-14   -7.61613e-14
   10900        21.8     100.264     5.23055    -877.763     317.048    -560.715    9.63674e-14   -5.28466e-14   -5.28466e-14
   11000          22     99.8841     17.5935    -868.281     315.848    -552.433    1.08302e-13   -4.95159e-14   -4.95159e-14
   11100        22.2     100.225    -5.79883    -879.355     316.926     -562.43    1.11688e-13   -6.72795e-14   -6.72795e-14
   11200        22.4     99.9563    -14.9543    -890.576     316.077    -574.499    1.13798e-13   -5.67324e-14   -5.67324e-14
   11300        22.6     99.9906      10.165    -875.817     316.185    -559.631    1.16462e-13   -4.72955e-14   -4.72955e-14
   11400        22.8     99.9711    -3.67979    -892.586     316.124    -576.462    1.08358e-13   -2.30926e-14   -2.30926e-14
   11500          23     100.273     10.7477     -875.85     317.077    -558.774     1.1827e-13   -3.54439e-14   -3.54439e-14
   11600        23.2     99.8406     2.65263    -870.292     315.711    -554.581    1.03251e-13   -6.70575e-14   -6.70575e-14
   11700        23.4     99.9489     5.57309    -875.045     316.054    -558.991    7.78266e-14   -5.66214e-14   -5.66214e-14
   11800        23.6     99.9509     16.8284    -862.051      316.06    -545.991    8.48766e-14   -5.50671e-14   -5.50671e-14
   11900        23.8     100.234    -2.92915    -894.897     316.954    -577.942    7.74936e-14   -5.78426e-14   -5.78426e-14
   12000          24     99.8476     17.3489    -867.923     315.733     -552.19    6.87228e-14   -4.36318e-14   -4.36318e-14
   12100        24.2     100.078     7.53395    -872.755     316.463    -556.292    8.90399e-14   -5.42622e-14   -5.42622e-14
   12200        24.4     100.128    -4.73962    -888.651      316.62    -572.031    6.03406e-14    -4.4631e-14    -4.4631e-14
   12300        24.6     100.129    -7.23796    -891.594     316.624    -574.971    3.45279e-14   -4.95159e-14   -4.95159e-14
   12400        24.8     99.9153    -2.96588    -899.048     315.947    -583.101    6.10623e-14   -5.54556e-14   -5.54556e-14
   12500          25      99.893     10.4005    -874.844     315.877    -558.967    5.10703e-14   -6.06182e-14   -6.06182e-14
   12600        25.2     100.057    -3.93195    -896.643     316.396    -580.247    5.84532e-14   -3.09197e-14   -3.09197e-14
   12700        25.4     99.7432     12.4829    -874.834     315.403    -559.431    8.83738e-14    1.74305e-14    1.74305e-14
   12800        25.6     99.7459     1.90672    -884.463     315.411    -569.051    8.74856e-14    1.55431e-15    1.55431e-15
   12900        25.8     100.009    -5.54797    -887.453     316.243     -571.21    1.00697e-13    1.29202e-14    1.29202e-14
   13000          26     100.083     1.14617    -883.585     316.476    -567.109    1.17462e-13   -1.36557e-14   -1.36557e-14
   13100        26.2     99.8253      13.681    -860.786     315.663    -545.123     1.3467e-13    7.93809e-15    7.93809e-15
   13200        26.4     100.051    -3.11366    -887.439     316.376    -571.063    1.27287e-13    1.83187e-15    1.83187e-15
   13300        26.6     99.9239     11.2871    -871.636     315.974    -555.662    1.23457e-13    1.54876e-14    1.54876e-14
   13400        26.8     100.075    -1.65422    -881.913     316.452    -565.461    1.27731e-13    1.73195e-14    1.73195e-14
   13500          27     100.103     7.97658    -867.034      316.54    -550.494    1.36002e-13    3.26406e-14    3.26406e-14
   13600        27.2     100.176     5.55501    -867.499     316.771    -550.728    1.43219e-13      4.996e-15      4.996e-15
   13700        27.4     100.089     4.33475    -869.811     316.497    -553.314    1.63036e-13    5.77316e-15    5.77316e-15
   13800        27.6     99.8968     3.15905    -877.187     315.889    -561.299    1.85851e-13   -1.11022e-15   -1.11022e-15
   13900        27.8     100.006     10.8975     -867.55     316.235    -551.315    1.97703e-13    8.43769e-15    8.43769e-15
   14000          28     100.137    -5.77227    -880.316     316.648    -563.667     2.0231e-13    1.15086e-14    1.15086e-14
   14100        28.2     99.9481     11.4225    -865.294     316.051    -549.243    2.05891e-13    2.04281e-14    2.04281e-14
   14200        28.4     99.9999    -4.66408    -890.309     316.215    -574.095    2.05391e-13    4.01901e-14    4.01901e-14
   14300        28.6     99.7051    -2.40094    -886.852     315.282    -571.569    2.08611e-13    5.85365e-14    5.85365e-14
   14400        28.8     100.451     23.8571    -849.209     317.641    -531.569    2.05613e-13    5.37348e-14    5.37348e-14
   14500          29     99.8899    -2.72087     -882.84     315.867    -566.973    2.26152e-13    6.92779e-14    6.92779e-14
   14600        29.2     99.9879      1.4971    -870.866     316.177     -554.69    2.35478e-13    5.80369e-14    5.80369e-14
   14700        29.4     100.161    -2.61274    -882.178     316.725    -565.453    2.37144e-13     6.2117e-14     6.2117e-14
   14800        29.6     100.198    0.240409    -880.084     316.841    -563.243    2.43139e-13    8.18234e-14    8.18234e-14
   14900        29.8     100.099     5.95238    -869.585     316.529    -553.055    2.30482e-13    7.38853e-14    7.38853e-14
   15000          30     100.085     7.71623    -889.526     316.484    -573.041    2.14273e-13    5.77316e-14    5.77316e-14
   15100        30.2     100.124    0.988936    -897.278     316.608    -580.671    2.04836e-13    4.15223e-14    4.15223e-14
   15200        30.4     99.8506     24.5012    -861.162     315.742     -545.42    2.21823e-13    3.67484e-14    3.67484e-14
   15300        30.6      99.903    -4.47629    -902.024     315.908    -586.116    1.94955e-13     3.9857e-14     3.9857e-14
   15400        30.8     100.116    -4.01253    -900.958     316.581    -584.377    2.07945e-13    3.95239e-14    3.95239e-14
   15500          31     99.8694    -7.70615    -897.882     315.802     -582.08    1.94955e-13    2.27596e-14    2.27596e-14
   15600        31.2     100.018     11.8569    -879.317     316.273    -563.044    1.79967e-13    1.80966e-14    1.80966e-14
   15700        31.4     99.8606   -0.613466    -897.757     315.774    -581.982    1.91291e-13    1.86517e-14    1.86517e-14
   15800        31.6     100.181    -3.83724    -901.911     316.787    -585.124    2.14717e-13    4.88498e-15    4.88498e-15
   15900        31.8     100.139    -2.54605    -895.682     316.655    -579.027     2.0095e-13    9.38138e-15    9.38138e-15
   16000          32     99.9247     4.74942    -888.246     315.977    -572.269    1.94289e-13    8.65974e-15    8.65974e-15
   16100        32.2     99.9374     26.9221    -854.328     316.017    -538.311    1.96509e-13    2.73115e-14    2.73115e-14
   16200        32.4     99.9075      1.2965    -882.452     315.923    -566.529    1.93484e-13    2.37588e-14    2.37588e-14
   16300        32.6     99.9212     2.50381    -874.242     315.966    -558.276    1.83853e-13    4.80171e-14    4.80171e-14
   16400        32.8     99.8142     8.41205    -864.147     315.627    -548.519    1.97176e-13    3.24463e-14    3.24463e-14
   16500          33     99.9691    -8.80049    -887.491     316.117    -571.374     1.9873e-13    1.59872e-14    1.59872e-14
   16600        33.2     99.8672    -3.78341    -884.859     315.795    -569.064    1.86906e-13    9.10383e-15    9.10383e-15
   16700        33.4     100.036     9.85715    -868.077     316.328    -551.749    1.99618e-13    1.02141e-14    1.02141e-14
   16800        33.6     99.8874     -7.2027    -884.609     315.859     -568.75    2.07612e-13    2.27596e-15    2.27596e-15
   16900        33.8     100.092     5.77435    -873.277     316.505    -556.772    2.33147e-13   -8.85403e-15   -8.85403e-15
   17000          34     99.8699     4.32277    -878.025     315.804    -562.222    2.27651e-13     -4.996e-15     -4.996e-15
   17100        34.2       100.1    0.710996     -875.34      316.53     -558.81    2.33702e-13    2.69229e-15    2.69229e-15
   17200        34.4     99.9572    -7.03906    -887.719      316.08     -571.64     2.3137e-13    8.88178e-15    8.88178e-15
   17300        34.6     99.8009   -0.460616    -881.489     315.586    -565.903    2.25486e-13    5.77316e-15    5.77316e-15
   17400        34.8     99.9921     -3.0986    -897.205      316.19    -581.014     2.1938e-13    1.22125e-14    1.22125e-14
   17500          35     100.011    -5.59854    -896.113      316.25    -579.863    2.13496e-13    1.85407e-14    1.85407e-14
   17600        35.2     100.193      -2.014    -893.434     316.824     -576.61    2.10609e-13    6.66134e-15    6.66134e-15
   17700        35.4         100     4.13469    -881.096     316.216     -564.88    2.11858e-13    3.56382e-14    3.56382e-14
   17800        35.6     99.9441     -3.7511    -884.068     316.038     -568.03    2.04448e-13    3.07532e-14    3.07532e-14
   17900        35.8     99.9673    -4.75422     -883.18     316.112    -567.069    1.98563e-13    2.22183e-14    2.22183e-14
   18000          36      100.06     5.08647     -878.94     316.405    -562.535    1.99341e-13    3.75255e-14    3.75255e-14
   18100        36.2     100.002     16.3264    -862.848      316.22    -546.628    2.13496e-13    3.04895e-14    3.04895e-14
   18200        36.4     100.052     -2.8943    -886.888      316.38    -570.508    1.89515e-13    1.76525e-14    1.76525e-14
   18300        36.6     99.9695    -2.10115    -875.599     316.119     -559.48    1.80744e-13    9.99201e-16    9.99201e-16
   18400        36.8     99.9783     6.78515    -873.965     316.146    -557.818    1.69087e-13    2.77556e-16    2.77556e-16
   18500          37      99.977     6.46297    -880.527     316.142    -564.385    1.58984e-13   -2.32037e-14   -2.32037e-14
   18600        37.2     99.9898    0.926314     -884.26     316.183    -568.077    1.69753e-13   -2.22045e-14   -2.22045e-14
   18700        37.4     100.191     2.06218    -881.644      316.82    -564.824     1.7053e-13   -2.92683e-14   -2.92683e-14
   18800        37.6     99.8783       10.63    -867.691      315.83    -551.861    1.81632e-13   -2.06501e-14   -2.06501e-14
   18900        37.8     99.8826    0.210449    -873.976     315.844    -558.132    1.55209e-13   -3.75255e-14   -3.75255e-14
   19000          38     99.9541    -12.8955     -888.63      316.07     -572.56    1.61982e-13   -2.79776e-14   -2.79776e-14
   19100        38.2      100.05     7.10231    -868.698     316.373    -552.325     1.7264e-13   -2.88658e-15   -2.88658e-15
   19200        38.4     100.041    -9.06669    -893.658     316.344    -577.313    1.69809e-13   -6.22462e-15   -6.22462e-15
   19300        38.6     100.022     4.54668     -863.39     316.285    -547.105    1.87281e-13    1.72085e-15    1.72085e-15
   19400        38.8     99.9705      -7.571    -882.065     316.122    -565.944    1.63869e-13    6.21725e-15    6.21725e-15
   19500          39     100.213     1.45416    -875.574     316.889    -558.686    1.60871e-13    1.90958e-14    1.90958e-14
   19600        39.2     100.136    -2.83639    -881.264     316.646    -564.618    1.42109e-13    1.51823e-14    1.51823e-14
   19700        39.4       99.99    -2.14118    -885.701     316.183    -569.518    1.41887e-13    2.37033e-14    2.37033e-14
   19800        39.6     99.8868     13.8343     -869.01     315.857    -553.153    1.58984e-13    1.65423e-14    1.65423e-14
   19900        39.8     99.9258     7.11876    -879.843      315.98    -563.863    1.72862e-13    5.21805e-15    5.21805e-15
   20000          40     100.089      0.2428    -884.972     316.497    -568.474    1.73306e-13     3.9968e-14     3.9968e-14
   20100        40.2     99.9259     6.57128    -876.703     315.981    -560.722    1.81355e-13    2.10942e-14    2.10942e-14
   20200        40.4     100.043     5.00113    -877.583     316.352    -561.231    1.80522e-13    2.15938e-14    2.15938e-14
   20300        40.6      99.854     11.3538    -867.585     315.753    -551.832    1.80744e-13    2.53131e-14    2.53131e-14
   20400        40.8     100.026     9.19534    -875.189     316.298    -558.891    1.73528e-13     3.9746e-14     3.9746e-14
   20500          41     100.213     17.9506    -861.801     316.889    -544.913    1.78857e-13    6.57252e-14    6.57252e-14
   20600        41.2     100.049    -1.42642    -886.515     316.371    -570.144    1.53211e-13    5.81757e-14    5.81757e-14
   20700        41.4     100.022    -8.10797    -889.577     316.285    -573.291    1.37668e-13    7.75283e-14    7.75283e-14
   20800        41.6     100.085    -3.18538    -885.842     316.484    -569.358    1.20681e-13    8.43769e-14    8.43769e-14
   20900        41.8     100.139     2.90893     -886.14     316.656    -569.484    1.02807e-13    9.21485e-14    9.21485e-14
   21000          42     100.055     1.96782    -889.749     316.389    -573.361    1.21347e-13    1.00586e-13    1.00586e-13
   21100        42.2     99.9499  -0.0708694    -872.006     316.057    -555.949    1.11938e-13    1.01696e-13    1.01696e-13
   21200        42.4     99.8781    -6.08479    -885.181     315.829    -569.352    9.92539e-14    1.14797e-13    1.14797e-13
   21300        42.6     99.9594    -3.94549    -884.002     316.087    -567.915    8.43631e-14    1.27898e-13    1.27898e-13
   21400        42.8      100.01    -4.94999    -883.326     316.248    -567.078    7.14082e-14     1.3467e-13     1.3467e-13
   21500          43       100.1    -0.82159    -875.911     316.532    -559.379     9.4702e-14    1.42109e-13    1.42109e-13
   21600        43.2     100.048    -5.57943    -888.668     316.367    -572.301    7.70495e-14    1.56763e-13    1.56763e-13
   21700        43.4     100.114     5.95825    -881.668     316.575    -565.093    9.92539e-14    1.59178e-13    1.59178e-13
   21800        43.6     100.099    0.379783    -892.284     316.527    -575.757    8.00471e-14    1.49547e-13    1.49547e-13
   21900        43.8     100.152      10.841    -871.142     316.696    -554.446    1.00808e-13    1.48215e-13    1.48215e-13
   22000          44     100.043     11.4705    -877.282     316.352    -560.931    9.82547e-14    1.36557e-13    1.36557e-13
   22100        44.2     100.175     13.3342     -876.06     316.767    -559.293    7.74936e-14    1.22347e-13    1.22347e-13
   22200        44.4      100.14    -3.51984    -892.605     316.659    -575.946     7.4607e-14    1.48881e-13    1.48881e-13
   22300        44.6     100.002     18.4337    -872.344     316.223    -556.121    5.86198e-14    1.31284e-13    1.31284e-13
   22400        44.8     99.8508   -0.465459    -893.681     315.743    -577.938    4.66294e-14     1.2268e-13     1.2268e-13
   22500          45      99.999     7.31585    -894.046     316.212    -577.834    4.84057e-14    1.35447e-13    1.35447e-13
   22600        45.2     99.7745     4.21249    -878.934     315.502    -563.432    6.68909e-14    1.42053e-13    1.42053e-13
   22700        45.4     99.6023     2.95205    -880.498     314.958     -565.54    5.46785e-14    1.53211e-13    1.53211e-13
   22800        45.6     100.058    -0.58532    -882.987     316.397     -566.59     6.0757e-14     1.6076e-13     1.6076e-13
   22900        45.8     100.061    -3.68413    -873.431     316.408    -557.022    7.25253e-14    1.42386e-13    1.42386e-13
   23000          46     100.034     6.89298    -866.204     316.323    -549.881    7.10543e-14    1.47438e-13    1.47438e-13
   23100        46.2     100.054     5.14788    -882.972     316.386    -566.586    8.64309e-14    1.59789e-13    1.59789e-13
   23200        46.4     99.8695     6.09831    -878.576     315.802    -562.774    8.34333e-14    1.58096e-13    1.58096e-13
   23300        46.6     100.066    -4.04241    -880.973     316.424    -564.549    8.21565e-14    1.70058e-13    1.70058e-13
   23400        46.8     99.8845    -7.94461     -889.61      315.85     -573.76    7.78266e-14    1.85962e-13    1.85962e-13
   23500          47     100.085     1.29189    -882.487     316.484    -566.003    8.63754e-14    1.90625e-13    1.90625e-13
   23600        47.2     99.9951     3.81854    -885.574       316.2    -569.374    8.85403e-14    1.98841e-13    1.98841e-13
   23700        47.4     99.9132     9.10639    -881.963     315.941    -566.023     8.4821e-14    2.15161e-13    2.15161e-13