       0           0         100     19.2966           0     316.215     316.215   -1.11022e-15   -8.32667e-16   -8.32667e-16
     100         0.2     100.048     32.0015    -861.401     316.367    -545.034     9.4369e-15   -1.24345e-14   -1.24345e-14
     200         0.4     99.9758     4.83864     -847.42     316.138    -531.282    2.77556e-14   -2.12053e-14   -2.12053e-14
     300         0.6     100.192    -14.1857     -847.46     316.821    -530.638    2.30926e-14   -4.88498e-15   -4.88498e-15
     400         0.8     100.064     7.83099    -809.979     316.419    -493.561    2.10942e-14   -1.11022e-15   -1.11022e-15
     500           1     99.9574    -10.5313    -828.916      316.08    -512.835    2.13995e-14    2.02061e-14    2.02061e-14
     600         1.2     100.148    -3.49964    -825.939     316.682    -509.257    3.06422e-14    1.55431e-14    1.55431e-14
     700         1.4     99.9091     2.59637    -818.551     315.928    -502.624    3.65818e-14    1.59317e-14    1.59317e-14
     800         1.6     100.028     2.72789     -819.87     316.302    -503.568    4.65461e-14    2.35367e-14    2.35367e-14
     900         1.8      99.911       4.465    -811.621     315.933    -495.688    3.75255e-14    4.88498e-15    4.88498e-15
    1000           2     100.008   -0.616629    -810.129     316.241    -493.888    2.76584e-14    8.21565e-15    8.21565e-15
    1100         2.2     100.033      2.1901    -817.745     316.319    -501.427    4.57412e-14    4.71845e-15    4.71845e-15
    1200         2.4     100.051    -1.54631    -811.149     316.376    -494.773    3.73035e-14   -4.94049e-15   -4.94049e-15
    1300         2.6     99.9518     1.84856    -811.343     316.063    -495.281    1.57652e-14   -1.54876e-14   -1.54876e-14
    1400         2.8      100.04    0.979151    -812.978     316.343    -496.636    1.73195e-14   -8.10463e-15   -8.10463e-15
    1500           3     100.071     9.84793    -800.131     316.439    -483.691    3.33067e-14   -8.88178e-15   -8.88178e-15
    1600         3.2     100.075    -3.62167      -820.4     316.452    -503.948    2.68674e-14   -2.19824e-14   -2.19824e-14
    1700         3.4     100.056    -4.64194     -809.24     316.393    -492.847    1.86517e-14   -4.17444e-14   -4.17444e-14
    1800         3.6     100.055   -0.144706    -792.145      316.39    -475.755    2.86438e-14   -3.08642e-14   -3.08642e-14
    1900         3.8     100.098     5.86882    -794.579     316.523    -478.055     3.9746e-14   -2.42029e-14   -2.42029e-14
    2000           4     100.023    -3.25836    -801.219     316.288    -484.932    8.65974e-15   -3.68872e-14   -3.68872e-14
    2100         4.2     100.106     3.38527    -790.149     316.549    -473.599    5.32907e-15   -5.24025e-14   -5.24025e-14
    2200         4.4     99.8381     2.66641    -803.295     315.703    -487.592   -1.07137e-14   -5.24025e-14   -5.24025e-14
    2300         4.6     100.025      -1.517    -806.688     316.294    -490.394   -2.66454e-15   -4.03982e-14   -4.03982e-14
    2400         4.8     99.9695     6.23514     -775.28     316.119    -459.161    6.21725e-15   -9.15934e-15   -9.15934e-15
    2500           5     100.027    -2.70098    -791.626       316.3    -475.326   -9.99201e-15   -5.60663e-15   -5.60663e-15
    2600         5.2     99.9546    -3.27742    -803.639     316.071    -487.567   -9.76996e-15    1.07202e-14    1.07202e-14
    2700         5.4     99.9254     3.78955    -800.391     315.979    -484.411    8.43769e-15    2.75335e-14    2.75335e-14
    2800         5.6     100.025     4.73815    -793.543     316.295    -477.248    2.13163e-14    2.45359e-14    2.45359e-14
    2900         5.8     100.178    -6.29553    -812.869     316.779     -496.09    8.63198e-15     1.2379e-14     1.2379e-14
    3000           6     100.052     2.91759    -800.522     316.381    -484.142    4.32987e-15    2.31482e-14    2.31482e-14
    3100         6.2     99.9888     6.49538    -805.384      316.18    -489.204    1.33227e-14    2.02061e-14    2.02061e-14
    3200         6.4     99.9389     7.95672    -813.873     316.022    -497.852    3.86358e-14   -1.22125e-15   -1.22125e-15
    3300         6.6     100.055     1.12872    -820.409     316.388    -504.021    1.69864e-14   -5.32907e-15   -5.32907e-15
    3400         6.8      99.862     6.36554    -802.887     315.779    -487.108   -4.30385e-15   -3.21965e-15   -3.21965e-15
    3500           7     99.9366    -10.1058     -817.28     316.015    -501.266   -2.05391e-15    2.53686e-14    2.53686e-14
    3600         7.2     100.048    -7.23318    -810.758     316.366    -494.392    1.24345e-14    1.37668e-14    1.37668e-14
    3700         7.4     99.9256     4.02399    -792.383      315.98    -476.403    1.17684e-14    8.88178e-15    8.88178e-15
    3800         7.6     100.282    0.152349    -798.232     317.106    -481.125    2.62013e-14    1.11022e-15    1.11022e-15
    3900         7.8     99.9415    -7.48954    -811.256      316.03    -495.226   -1.22125e-15    2.88658e-14    2.88658e-14
    4000           8        99.9     7.66803    -785.543     315.899    -469.644    1.36557e-14    1.84297e-14    1.84297e-14
    4100         8.2     100.039     4.97048    -792.568     316.338     -476.23    1.55431e-15    2.78666e-14    2.78666e-14
    4200         8.4     100.004    -2.29979    -798.717     316.227     -482.49    2.44249e-14    2.68674e-14    2.68674e-14
    4300         8.6      99.918    -2.97117      -802.2     315.956    -486.245    1.97065e-14    6.32827e-15    6.32827e-15
    4400         8.8     100.022     2.57998    -806.885     316.285      -490.6    2.23155e-14    1.66533e-14    1.66533e-14
    4500           9     99.9618    -5.96018    -824.378     316.094    -508.283    1.42386e-14    2.19269e-14    2.19269e-14
    4600         9.2     99.9781    -9.26523    -828.354     316.146    -512.208    1.72085e-15   -6.21725e-15   -6.21725e-15
    4700         9.4     99.8958     1.07308    -826.713     315.885    -510.828    1.88738e-15    7.88258e-15    7.88258e-15
    4800         9.6     100.016    -12.7315    -828.392     316.265    -512.127    2.30926e-14    1.59595e-14    1.59595e-14
    4900         9.8     100.038     2.40438    -805.132     316.336    -488.796    5.02931e-14    8.65974e-15    8.65974e-15
    5000          10     99.9182    -2.53167    -816.526     315.956     -500.57    4.04121e-14    7.99361e-15    7.99361e-15
    5100        10.2     100.007    0.646801    -815.426     316.237    -499.189    2.42029e-14    2.13163e-14    2.13163e-14
    5200        10.4     99.8885      1.8611    -806.721     315.862    -490.858    1.82077e-14    2.44249e-14    2.44249e-14
    5300        10.6     100.089     11.1117    -795.574     316.495    -479.079    2.90878e-14    3.44169e-14    3.44169e-14
    5400        10.8     99.9734   -0.743286    -815.515     316.131    -499.384    9.99201e-15     2.7661e-14     2.7661e-14
    5500          11     99.9606    -9.42957    -818.065     316.091    -501.975    2.12608e-14    4.31877e-14    4.31877e-14
    5600        11.2     99.9019    -4.67059    -809.678     315.905    -493.773    2.75335e-14    5.60663e-14    5.60663e-14
    5700        11.4     100.146     -2.3195    -806.727     316.678    -490.049    3.94129e-14    7.00551e-14    7.00551e-14
    5800        11.6     99.9038      8.3878    -793.452     315.911    -477.541    2.22045e-14    8.37108e-14    8.37108e-14
    5900        11.8     99.9992    -1.00221    -800.982     316.213     -484.77    7.10543e-15    7.68829e-14    7.68829e-14
    6000          12      100.01    -1.32909    -805.282     316.245    -489.036   -6.88338e-15    9.07052e-14    9.07052e-14
    6100        12.2     99.9388    -4.00821    -806.117     316.022    -490.095   -3.01148e-15    8.70415e-14    8.70415e-14
    6200        12.4     100.021     10.1981    -787.818     316.281    -471.537   -1.12133e-14    8.57092e-14    8.57092e-14
    6300        12.6     99.8775    -1.41705    -799.704     315.828    -483.877    1.16573e-14    6.79456e-14    6.79456e-14
    6400        12.8     99.9259     11.3809    -774.308     315.981    -458.327   -2.55351e-15    8.82627e-14    8.82627e-14
    6500          13     99.9758     12.0931    -766.651     316.138    -450.513    2.30371e-15    7.37188e-14    7.37188e-14
    6600        13.2     100.173    -3.49361    -800.534     316.762    -483.771   -5.38458e-15    7.21645e-14    7.21645e-14
    6700        13.4      100.01     1.84551    -791.812     316.246    -475.566   -3.60822e-15    8.88178e-14    8.88178e-14
    6800        13.6     99.8399    -5.36729    -791.803     315.709    -476.094    1.72085e-15    7.87148e-14    7.87148e-14
    6900        13.8     99.9971    -7.68032     -803.53     316.206    -487.324   -1.63758e-14    7.80487e-14    7.80487e-14
    7000          14     100.146    -6.18384    -804.242     316.678    -487.564   -2.13163e-14     7.8439e-14     7.8439e-14
    7100        14.2     100.072     1.40048    -783.709     316.442    -467.267   -2.26485e-14    7.50511e-14    7.50511e-14
    7200        14.4     100.023    -9.57359    -801.464     316.289    -485.175   -2.57572e-14    8.33222e-14    8.33222e-14
    7300        14.6     100.006     5.20745    -779.606     316.234    -463.373   -3.41949e-14    1.03029e-13    1.03029e-13
    7400        14.8     100.264    -11.3472     -798.86     317.049    -481.811   -3.55271e-15      1.249e-13      1.249e-13
    7500          15      100.04     4.21302    -789.677     316.343    -473.334   -8.21565e-15    1.15907e-13    1.15907e-13
    7600        15.2      99.894    -10.8609    -812.575      315.88    -496.695    1.88738e-14      1.108e-13      1.108e-13
    7700        15.4     99.7705    -14.9425    -813.972     315.489    -498.483    3.01148e-14    1.19016e-13    1.19016e-13
    7800        15.6     99.9372     7.45044    -780.736     316.016     -464.72    1.84297e-14    1.54654e-13    1.54654e-13
    7900        15.8     100.063    -14.4307    -821.431     316.415    -505.016    8.40994e-15    1.57485e-13    1.57485e-13
    8000          16     99.9585    -4.65572    -809.472     316.084    -493.388   -6.21725e-15    1.73306e-13    1.73306e-13
    8100        16.2     99.8437    -5.42662    -812.142     315.721    -496.421   -1.62093e-14    1.65312e-13    1.65312e-13
    8200        16.4     99.9225    -5.08013    -806.859      315.97    -490.889   -9.54792e-15    1.51656e-13    1.51656e-13
    8300        16.6     99.9544    -2.23541    -803.039     316.071    -486.968   -1.42109e-14    1.44329e-13    1.44329e-13
    8400        16.8     100.216    -6.45357    -805.791     316.896    -488.895   -2.15383e-14    1.23693e-13    1.23693e-13
    8500          17     100.136   -0.732863    -795.772     316.645    -479.127   -2.17187e-14    1.67866e-13    1.67866e-13
    8600        17.2     99.8747    -13.2334    -818.719     315.819      -502.9   -1.14353e-14    1.53433e-13    1.53433e-13
    8700        17.4     99.8452    -3.73243    -809.874     315.726    -494.148   -1.74583e-14    1.46771e-13    1.46771e-13
    8800        17.6     100.081    0.184119    -793.398     316.472    -476.925   -1.34337e-14    1.62537e-13    1.62537e-13
    8900        17.8       99.94     9.63245    -792.967     316.025    -476.942    1.31006e-14    1.64757e-13    1.64757e-13
    9000          18     100.087     6.68389     -804.71     316.489    -488.221   -2.22045e-16    1.85851e-13    1.85851e-13
    9100        18.2     99.9181    -2.18125    -802.003     315.956    -486.046    2.66454e-15    1.81688e-13    1.81688e-13
    9200        18.4     100.046     5.58313    -794.845     316.359    -478.486    1.39333e-14    1.93179e-13    1.93179e-13
    9300        18.6     100.042     1.89615    -804.665     316.348    -488.317    1.50852e-14    1.72168e-13    1.72168e-13
    9400        18.8     100.048    -12.1635    -825.211     316.367    -508.844    2.20934e-14    1.74305e-13    1.74305e-13
    9500          19     99.9438    0.838272    -810.822     316.037    -494.785    3.61933e-14     1.6695e-13     1.6695e-13
    9600        19.2     100.047     -11.749    -816.684     316.363     -500.32    8.52096e-15    1.72334e-13    1.72334e-13
    9700        19.4     99.9865    -1.89548    -809.953     316.172     -493.78    3.24185e-14    1.79412e-13    1.79412e-13
    9800        19.6     100.043     3.24152    -808.519     316.352    -492.167    4.14668e-14    1.82049e-13    1.82049e-13
    9900        19.8     100.053   -0.813023    -826.087     316.382    -509.705    5.55389e-14    1.87517e-13    1.87517e-13
   10000          20     99.9769   0.0157665    -818.746     316.142    -502.604    6.53921e-14     1.7808e-13     1.7808e-13
   10100        20.2     100.145    -4.16058    -808.294     316.674     -491.62    5.75096e-14    1.70752e-13    1.70752e-13
   10200        20.4      99.973    -0.89229    -802.395      316.13    -486.265    5.66214e-14    2.03559e-13    2.03559e-13
   10300        20.6     100.067    -4.22483    -812.029     316.426    -495.602    6.53921e-14    1.92846e-13    1.92846e-13
   10400        20.8     99.8476     9.26998    -793.377     315.733    -477.644    7.06102e-14    1.89182e-13    1.89182e-13
   10500          21     99.9941   -0.631111    -811.802     316.196    -495.605    7.19078e-14    1.91402e-13    1.91402e-13
   10600        21.2     100.005     -2.6899    -825.333      316.23    -509.103    7.77156e-14    1.93789e-13    1.93789e-13
   10700        21.4     99.7302    0.360386    -814.389     315.362    -499.027     9.9476e-14    1.95843e-13    1.95843e-13
   10800        21.6     99.9891     1.20303    -797.217     316.181    -481.036    1.01252e-13    2.22711e-13    2.22711e-13
   10900        21.8     99.9987    -15.0149    -813.704     316.211    -497.493    9.92262e-14    2.19269e-13    2.19269e-13
   11000          22     99.9759    -9.51875    -800.383     316.139    -484.245    8.80407e-14    2.46136e-13    2.46136e-13
   11100        22.2     100.008     2.88302    -797.514     316.241    -481.273    9.83658e-14    2.66231e-13    2.66231e-13
   11200        22.4     99.9231    -2.35367    -811.373     315.972    -495.401    9.11493e-14    2.32939e-13    2.32939e-13
   11300        22.6       99.92     5.57771    -799.888     315.962    -483.926    9.75886e-14    2.06946e-13    2.06946e-13
   11400        22.8      100.16     9.72958    -791.075     316.722    -474.353    7.69385e-14     1.9873e-13     1.9873e-13
   11500          23     99.8526     4.16555    -803.278     315.749    -487.529    8.37108e-14    2.06155e-13    2.06155e-13
   11600        23.2     99.9348     3.77703     -801.46     316.009    -485.451    9.19265e-14    2.06557e-13    2.06557e-13
   11700        23.4     99.8776     5.40287    -796.542     315.828    -480.714    1.00586e-13    1.96787e-13    1.96787e-13
   11800        23.6      99.957    -2.99423    -796.944     316.079    -480.865    1.00142e-13    1.85185e-13    1.85185e-13
   11900        23.8     100.124     1.29273    -795.283     316.607    -478.677    1.22569e-13    1.61249e-13    1.61249e-13
   12000          24     99.8094    -1.99676    -796.152     315.612     -480.54    1.20307e-13    1.67505e-13    1.67505e-13
   12100        24.2     99.8479    -3.33154    -790.073     315.734    -474.339    1.17429e-13    1.71863e-13    1.71863e-13
   12200        24.4     99.9194    -10.4627    -794.097      315.96    -478.137    1.13243e-13    1.74194e-13    1.74194e-13
   12300        24.6     99.9678     2.07108    -778.568     316.113    -462.455    1.32783e-13    1.85449e-13    1.85449e-13
   12400        24.8     100.196     3.58115    -781.526     316.834    -464.692    1.32117e-13    1.79412e-13    1.79412e-13
   12500          25     100.239   -0.526324    -783.846     316.971    -466.875    1.28786e-13    1.62648e-13    1.62648e-13
   12600        25.2     99.7617    -4.14457      -791.1     315.461    -475.639     1.1724e-13    1.30229e-13    1.30229e-13
   12700        25.4     99.9712    -6.54387    -801.622     316.124    -485.498    1.13687e-13    1.32394e-13    1.32394e-13
   12800        25.6     100.079     2.06842    -790.897     316.465    -474.433     1.0747e-13     1.3145e-13     1.3145e-13
   12900        25.8     100.059   -0.126916    -796.526     316.402    -480.124    9.08162e-14    1.28342e-13    1.28342e-13
   13000          26     99.9997     3.66267    -795.363     316.214    -479.149    8.78186e-14     1.0536e-13     1.0536e-13
   13100        26.2     99.9788    -4.29277    -808.819     316.148    -492.672    7.61613e-14    1.05027e-13    1.05027e-13
   13200        26.4     100.227     3.37347    -799.624     316.933    -482.691    9.39249e-14    9.31477e-14    9.31477e-14
   13300        26.6     100.023      2.8605    -797.052     316.289    -480.763    6.16174e-14    9.21485e-14    9.21485e-14
   13400        26.8     99.8132     4.75226    -790.709     315.624    -475.085     8.4821e-14    1.02834e-13    1.02834e-13
   13500          27     100.074     2.57845    -792.735     316.449    -476.286    8.84848e-14    1.00586e-13    1.00586e-13
   13600        27.2     100.002   -0.471736    -793.842     316.222     -477.62    8.77076e-14    7.72715e-14    7.72715e-14
   13700        27.4     100.095    -12.6279    -815.162     316.515    -498.647    8.45435e-14    6.72578e-14    6.72578e-14
   13800        27.6     100.028  -0.0790572    -803.171     316.304    -486.867     7.0749e-14    8.82072e-14    8.82072e-14
   13900        27.8     99.8808     8.28782    -788.657     315.838    -472.819    7.34968e-14    7.55836e-14    7.55836e-14
   14000          28     99.8829    -9.64893     -813.22     315.845    -497.375    6.89448e-14    6.99441e-14    6.99441e-14
   14100        28.2     99.9762    -4.78704    -810.882      316.14    -494.742    8.75966e-14    5.61773e-14    5.61773e-14
   14200        28.4     100.106    -8.90095    -810.902      316.55    -494.352    9.19265e-14    4.11893e-14    4.11893e-14
   14300        28.6     100.127    -11.0929    -810.539     316.616    -493.922    7.86038e-14    5.25135e-14    5.25135e-14
   14400        28.8     100.063    -3.26991    -808.161     316.414    -491.747    7.34968e-14    5.12923e-14    5.12923e-14
   14500          29     99.9041     4.69214    -792.631     315.912     -476.72    6.61693e-14    6.83065e-14    6.83065e-14
   14600        29.2     99.8723      1.5373    -796.241     315.811    -480.429    5.63993e-14    7.67164e-14    7.67164e-14
   14700        29.4     100.085     -5.8953    -803.867     316.482    -487.385    1.01252e-13    6.56142e-14    6.56142e-14
   14800        29.6     99.8372    -6.43073    -808.933       315.7    -493.233    1.01474e-13    3.67345e-14    3.67345e-14
   14900        29.8     99.8856    -1.79092    -810.792     315.853    -494.938     9.3231e-14    1.42109e-14    1.42109e-14
   15000          30     99.9147    -7.35038    -820.701     315.945    -504.756    8.08242e-14    9.49241e-15    9.49241e-15
   15100        30.2     99.9388     7.38096    -795.248     316.021    -479.227    7.60503e-14    1.54043e-14    1.54043e-14
   15200        30.4     100.249     3.47374    -805.519     317.001    -488.518    6.26166e-14    2.53131e-14    2.53131e-14
   15300        30.6     99.9508     -5.9407    -813.973      316.06    -497.913    7.51621e-14    7.99361e-15    7.99361e-15
   15400        30.8     99.8529    0.123457    -809.542      315.75    -493.792    7.33857e-14   -1.86517e-14   -1.86517e-14
   15500          31     99.9205    -1.49601    -809.744     315.964     -493.78    6.66134e-14    8.32667e-17    8.32667e-17
   15600        31.2     99.9581     18.6652    -785.491     316.082    -469.409    8.33222e-14    2.28706e-14    2.28706e-14
   15700        31.4     99.8991     1.38098    -806.079     315.896    -490.183    8.72635e-14    3.68594e-14    3.68594e-14
   15800        31.6     99.9261     8.06712    -800.852     315.981    -484.871    8.34888e-14    2.13163e-14    2.13163e-14
   15900        31.8      100.01     4.15016    -807.113     316.245    -490.868    8.20455e-14    1.98869e-14    1.98869e-14
   16000          32     100.098     18.6163    -789.655     316.526    -473.129    9.65894e-14     1.5099e-14     1.5099e-14
   16100        32.2     99.8616       -3.26    -815.778     315.777    -500.001    9.96425e-14    2.85327e-14    2.85327e-14
   16200        32.4     99.7921     1.77515    -806.568     315.558     -491.01    9.75331e-14    1.36557e-14    1.36557e-14
   16300        32.6     100.006     2.62983    -815.765     316.233    -499.532    1.18905e-13    1.46549e-14    1.46549e-14
   16400        32.8     99.9966    -1.93061    -819.528     316.204    -503.323    1.21236e-13    5.55112e-15    5.55112e-15
   16500          33     99.8907    -2.24762    -817.541     315.869    -501.672    8.87068e-14   -1.45994e-14   -1.45994e-14
   16600        33.2     100.088     7.88913    -807.587     316.492    -491.095    6.94445e-14   -4.55191e-15   -4.55191e-15
   16700        33.4     100.127     8.65271    -807.218     316.615    -490.602    9.20097e-14    1.75415e-14    1.75415e-14
   16800        33.6     99.8354     1.56394    -818.114     315.695     -502.42    7.74381e-14    9.99201e-15    9.99201e-15
   16900        33.8     99.8705    -8.59183    -826.396     315.806     -510.59    8.14904e-14    3.88578e-14    3.88578e-14
   17000          34     100.058    -2.75325    -800.734     316.399    -484.335    1.01419e-13    4.34375e-14    4.34375e-14
   17100        34.2     100.064    -9.68617    -814.541     316.416    -498.125       6.95e-14    4.37983e-14    4.37983e-14
   17200        34.4     99.9745   -0.104145    -815.972     316.134    -499.838    1.13687e-13    1.73195e-14    1.73195e-14
   17300        34.6     100.156    0.850989    -821.288      316.71    -504.578    1.06359e-13    2.83523e-14    2.83523e-14
   17400        34.8     99.9363    -4.10412    -824.394     316.014     -508.38    9.07746e-14    1.60844e-14    1.60844e-14
   17500          35     99.9348     7.84919     -805.33     316.009    -489.321    9.45632e-14   -6.99441e-15   -6.99441e-15
   17600        35.2     99.9788     2.52683    -792.207     316.148    -476.059    1.15963e-13   -1.37668e-14   -1.37668e-14
   17700        35.4     99.8761    -3.89728    -791.409     315.823    -475.586    1.15297e-13   -3.35287e-14   -3.35287e-14
   17800        35.6     100.041    0.541893    -781.886     316.343    -465.543    1.26177e-13    -2.7145e-14    -2.7145e-14
   17900        35.8     100.052    -1.61964    -784.117      316.38    -467.737    1.50324e-13   -3.55826e-14   -3.55826e-14
   18000          36     99.9941    -8.06345    -793.761     316.196    -477.565     1.4011e-13   -2.81442e-14   -2.81442e-14
   18100        36.2     100.131     0.17818    -782.996     316.629    -466.367    1.36224e-13   -2.89768e-14   -2.89768e-14
   18200        36.4      100.13    -2.25525    -793.011     316.627    -476.383    1.36169e-13    -3.9968e-14    -3.9968e-14
   18300        36.6     99.9415    -5.93146    -790.339      316.03    -474.309    1.41054e-13   -4.56163e-14   -4.56163e-14
   18400        36.8     100.214     5.02324    -775.987     316.892    -459.094     1.4877e-13   -5.32907e-14   -5.32907e-14
   18500          37     99.9839    -1.59132    -800.249     316.164    -484.085    1.27898e-13   -4.04676e-14   -4.04676e-14
   18600        37.2     100.214     -6.3239    -807.625     316.892    -490.733    1.28342e-13   -4.27436e-14   -4.27436e-14
   18700        37.4     100.052     8.22529    -787.053      316.38    -470.673    1.25455e-13   -4.92245e-14   -4.92245e-14
   18800        37.6      100.05    -11.4441     -810.15     316.374    -493.776    1.19016e-13   -6.01741e-14   -6.01741e-14
   18900        37.8      100.14    -1.94701    -793.682     316.659    -477.024    1.11383e-13   -5.93969e-14   -5.93969e-14
   19000          38     99.9881    -3.02069    -785.494     316.177    -469.317    1.01474e-13    -7.9714e-14    -7.9714e-14
   19100        38.2     100.122    -9.93457    -793.848     316.602    -477.247     8.7208e-14   -1.05471e-13   -1.05471e-13
   19200        38.4     99.9094    -8.73347    -793.469     315.929     -477.54    9.23706e-14   -8.77076e-14   -8.77076e-14
   19300        38.6     100.064    -1.55225    -789.019     316.416    -472.603    1.25788e-13   -8.34888e-14   -8.34888e-14
   19400        38.8     99.9958    -11.7764    -820.004     316.202    -503.802    1.33116e-13   -7.51621e-14   -7.51621e-14
   19500          39     99.9404    -1.09987    -803.598     316.026    -487.572    1.68532e-13   -5.79536e-14   -5.79536e-14
   19600        39.2     99.8599    -5.80423     -812.78     315.772    -497.008    1.53988e-13   -7.23865e-14   -7.23865e-14
   19700        39.4     99.9278    -2.20207    -816.061     315.987    -500.074     1.8463e-13   -7.89369e-14   -7.89369e-14
   19800        39.6     100.093   -0.505419    -823.658     316.508    -507.149    1.63744e-13   -7.52315e-14   -7.52315e-14
   19900        39.8     99.8898     20.4498    -791.502     315.866    -475.636    1.82521e-13   -7.20535e-14   -7.20535e-14
   20000          40     100.158    -3.49834    -824.598     316.715    -507.883    1.78788e-13   -8.49737e-14   -8.49737e-14
   20100        40.2     99.8935   -0.346847    -815.038     315.878     -499.16    1.87406e-13   -1.02821e-13   -1.02821e-13
   20200        40.4     100.089     6.80554    -815.294     316.496    -498.798    1.97287e-13   -1.04583e-13   -1.04583e-13
   20300        40.6     100.059      3.7493    -829.553     316.403     -513.15    1.99396e-13   -1.09524e-13   -1.09524e-13
   20400        40.8     99.9669    -8.30663    -833.479      316.11    -517.368    1.94511e-13    -1.0747e-13    -1.0747e-13
   20500          41     99.9538   0.0937392    -808.596     316.069    -492.527    2.27152e-13   -1.08358e-13   -1.08358e-13
   20600        41.2     99.9463    -4.89823    -804.109     316.045    -488.064    2.46192e-13   -1.22458e-13   -1.22458e-13
   20700        41.4     100.141     4.27119    -794.687      316.66    -478.027    2.46622e-13   -1.23901e-13   -1.23901e-13
   20800        41.6     100.105    -13.3264    -820.882     316.548    -504.335    2.26263e-13   -1.22666e-13   -1.22666e-13
   20900        41.8     100.172     1.33139    -802.802     316.759    -486.043    2.37754e-13   -1.34115e-13   -1.34115e-13
   21000          42     99.9694    -4.81267    -813.684     316.118    -497.565    2.42473e-13   -1.30562e-13   -1.30562e-13
   21100        42.2     100.047    -2.80655    -802.453     316.363     -486.09    2.30399e-13   -1.47382e-13   -1.47382e-13
   21200        42.4     99.9349     2.22413     -805.65     316.009     -489.64    2.24515e-13   -1.64868e-13   -1.64868e-13
   21300        42.6     99.9878      3.2515    -794.672     316.177    -478.496     2.3434e-13   -1.42386e-13   -1.42386e-13
   21400        42.8      100.23     -2.2871    -804.756     316.941    -487.816    2.68008e-13   -1.54099e-13   -1.54099e-13
   21500          43     100.074     2.19926    -808.478     316.448     -492.03    2.69895e-13   -1.73195e-13   -1.73195e-13
   21600        43.2     100.169      2.3575    -819.145      316.75    -502.395    2.43361e-13   -1.52919e-13   -1.52919e-13
   21700        43.4       100.1    -1.21474    -819.744     316.531    -503.213    2.34202e-13   -1.63536e-13   -1.63536e-13
   21800        43.6     99.9205    -8.77247    -815.768     315.964    -499.804    2.69895e-13   -1.75193e-13   -1.75193e-13
   21900        43.8     99.9287     5.61746    -808.187      315.99    -492.197    2.65898e-13   -1.77997e-13   -1.77997e-13
   22000          44     100.244     4.26599    -793.019     316.986    -476.033    2.94653e-13   -2.01672e-13   -2.01672e-13
   22100        44.2     100.155    -2.42173    -792.947     316.705    -476.242    2.85993e-13    -1.9873e-13    -1.9873e-13
   22200        44.4     100.119     1.24111     -785.37     316.592    -468.778    2.93099e-13   -1.93845e-13   -1.93845e-13
   22300        44.6     99.9753    -5.86132    -806.328     316.137    -490.191    2.76668e-13   -1.99701e-13   -1.99701e-13
   22400        44.8      100.09     1.83335    -800.605     316.499    -484.106    2.88658e-13   -1.89626e-13   -1.89626e-13
   22500          45     100.109    0.537899    -788.379      316.56    -471.819    2.83773e-13   -1.95288e-13   -1.95288e-13
   22600        45.2     100.111    0.155897    -788.108     316.567    -471.541      3.052e-13   -1.95399e-13   -1.95399e-13
   22700        45.4     100.035    -4.56363    -800.652     316.327    -484.325    3.13541e-13   -2.16438e-13   -2.16438e-13
   22800        45.6     100.247      -2.985    -795.289     316.997    -478.292    3.21965e-13   -2.28262e-13   -2.28262e-13
   22900        45.8     100.222     7.03685     -777.33     316.917    -460.413    3.34399e-13    -2.1394e-13    -2.1394e-13
   23000          46     99.9852    -1.86384    -798.689     316.168    -482.521    3.12583e-13   -2.00728e-13   -2.00728e-13
   23100        46.2     99.8741     2.40851    -791.576     315.817    -475.759    3.10418e-13   -2.03393e-13   -2.03393e-13
   23200        46.4     99.9956     3.06185    -798.733     316.201    -482.532    3.36176e-13   -2.04614e-13   -2.04614e-13
   23300        46.6     100.004    -4.36155    -808.939     316.228    -492.711     3.2252e-13   -1.86462e-13   -1.86462e-13
   23400        46.8     99.8153   -0.283115    -787.634     315.631    -472.003    3.36842e-13   -1.96509e-13   -1.96509e-13
   23500          47     100.061     8.65166    -782.457     316.407    -466.051    3.36731e-13   -2.05613e-13   -2.05613e-13
   23600        47.2     99.9588    -8.34675    -808.595     316.085     -492.51    3.43503e-13    -1.9626e-13    -1.9626e-13
   23700        47.4     100.103    -2.13311    -790.425     316.539    -473.885    3.75255e-13   -2.15217e-13   -2.15217e-13