       0           0         100     15.5297           0     316.215     316.215   -2.24265e-14    4.55191e-15    4.55191e-15
     100         0.2     99.8121     5.32512    -917.531     315.621     -601.91    -2.7367e-14   -4.44089e-15   -4.44089e-15
     200         0.4     100.074    -6.15884    -895.095      316.45    -578.645   -3.69704e-14     5.2458e-15     5.2458e-15
     300         0.6     100.026    -4.11826    -880.312     316.298    -564.014   -2.81719e-14    1.22125e-15    1.22125e-15
     400         0.8     100.169     9.18958    -858.155     316.751    -541.404   -3.24185e-14    1.75415e-14    1.75415e-14
     500           1     100.021    0.669689    -876.762     316.282     -560.48   -3.21965e-14   -7.10543e-15   -7.10543e-15
     600         1.2     100.033     3.07922     -857.41     316.319    -541.091    -3.5083e-14    1.24345e-14    1.24345e-14
     700         1.4     100.165      1.2382    -866.492     316.736    -549.756   -5.59552e-14    1.69864e-14    1.69864e-14
     800         1.6     100.012    -2.17508    -871.899     316.254    -555.645    -5.9508e-14    2.47996e-14    2.47996e-14
     900         1.8     99.8205     4.61549    -860.224     315.647    -544.577   -4.21885e-14    2.53686e-14    2.53686e-14
    1000           2     100.051    -11.4781    -888.924     316.376    -572.548   -3.85247e-14    1.36002e-14    1.36002e-14
    1100         2.2     100.133     6.75233    -860.141     316.635    -543.506   -3.13083e-14    5.32907e-15    5.32907e-15
    1200         2.4      99.881     6.71028    -850.712     315.839    -534.874   -3.79696e-14    1.34615e-14    1.34615e-14
    1300         2.6     100.044     3.85758    -858.469     316.355    -542.115   -2.70131e-14   -6.10623e-16   -6.10623e-16
    1400         2.8     100.127    -9.21713    -873.345     316.616    -556.728   -1.06304e-14      4.996e-15      4.996e-15
    1500           3      100.17    -7.92485    -869.218     316.753    -552.465   -2.24265e-14    1.54321e-14    1.54321e-14
    1600         3.2      100.14    0.152998    -872.253     316.657    -555.596   -3.77476e-14   -5.44009e-15   -5.44009e-15
    1700         3.4     99.9445      4.4019    -865.908      316.04    -549.869   -4.04121e-14    3.71925e-15    3.71925e-15
    1800         3.6     100.104     8.32734    -862.527     316.544    -545.983    -4.4853e-14    6.66134e-15    6.66134e-15
    1900         3.8     99.9284    -3.76364    -875.009     315.989    -559.021   -4.69069e-14    1.71252e-14    1.71252e-14
    2000           4     99.8972    -4.39622    -876.645      315.89    -560.756   -4.21746e-14   -1.13243e-14   -1.13243e-14
    2100         4.2     100.044      18.279    -837.831     316.354    -521.477   -3.61933e-14    6.55725e-15    6.55725e-15
    2200         4.4     99.8508    -8.54618    -872.266     315.743    -556.523   -5.36238e-14    2.13718e-15    2.13718e-15
    2300         4.6     100.189     5.16537    -860.462     316.811    -543.651   -5.58165e-14    6.32827e-15    6.32827e-15
    2400         4.8     99.9905    -5.04464    -873.422     316.185    -557.237   -6.12843e-14    1.86517e-14    1.86517e-14
    2500           5     100.113     9.56225    -872.209     316.573    -555.636   -6.02851e-14    1.46549e-14    1.46549e-14
    2600         5.2     99.8557     3.02144    -876.322     315.759    -560.564    -8.4599e-14    2.63123e-14    2.63123e-14
    2700         5.4     99.9818       6.607    -860.262     316.157    -544.104   -9.05942e-14    3.83582e-14    3.83582e-14
    2800         5.6     100.048   -0.688379    -873.359     316.368    -556.991   -7.46625e-14    2.40363e-14    2.40363e-14
    2900         5.8     100.038      9.6445    -853.519     316.336    -537.183   -6.33382e-14    1.57652e-14    1.57652e-14
    3000           6     100.032     -7.4746    -866.804     316.315    -550.489   -7.67164e-14    1.50435e-14    1.50435e-14
    3100         6.2     99.8835   -0.212903     -855.16     315.847    -539.313   -5.63993e-14    2.54935e-14    2.54935e-14
    3200         6.4     99.9188    -9.32827    -869.646     315.958    -553.687   -6.67244e-14    1.44329e-14    1.44329e-14
    3300         6.6     99.8435     11.9377    -852.177      315.72    -536.457   -9.68114e-14    3.84137e-14    3.84137e-14
    3400         6.8      100.03     9.78526    -857.081     316.311    -540.771   -9.88515e-14    2.68674e-14    2.68674e-14
    3500           7     99.8468    -3.00424    -867.123     315.731    -551.393   -1.09246e-13    3.86358e-14    3.86358e-14
    3600         7.2     99.9252    -7.18699    -872.866     315.978    -556.888   -1.12632e-13    2.08722e-14    2.08722e-14
    3700         7.4     100.019     12.3888    -856.876     316.275    -540.601   -1.14353e-13    9.32587e-15    9.32587e-15
    3800         7.6     100.104    -3.19476    -884.766     316.543    -568.223   -1.16879e-13    1.96509e-14    1.96509e-14
    3900         7.8     99.7856     13.1143    -864.151     315.537    -548.613   -1.52767e-13    3.08642e-14    3.08642e-14
    4000           8     100.004    -3.33435    -874.986     316.229    -558.757   -1.39111e-13    2.69784e-14    2.69784e-14
    4100         8.2     99.9123     4.90915    -854.024     315.938    -538.087   -1.19071e-13    4.36318e-14    4.36318e-14
    4200         8.4     99.9594    -7.66003    -869.818     316.087    -553.731   -1.18572e-13     1.9762e-14     1.9762e-14
    4300         8.6     99.9244    -2.67612    -857.255     315.976    -541.279   -1.21131e-13    8.32667e-15    8.32667e-15
    4400         8.8     99.9235     1.55617    -846.213     315.973     -530.24   -1.33893e-13    1.46966e-14    1.46966e-14
    4500           9     99.9685     9.38239    -845.123     316.115    -529.008   -1.16129e-13   -3.10862e-15   -3.10862e-15
    4600         9.2     99.8065    -6.11106    -879.597     315.603    -563.994   -9.30367e-14   -1.42109e-14   -1.42109e-14
    4700         9.4     100.057     3.88614      -868.2     316.397    -551.803   -8.15459e-14   -4.44089e-15   -4.44089e-15
    4800         9.6       100.3     4.03651    -867.007     317.164    -549.843   -1.26524e-13   -3.89688e-14   -3.89688e-14
    4900         9.8     99.8863     4.50219    -866.925     315.855     -551.07   -1.03167e-13   -2.30926e-14   -2.30926e-14
    5000          10     100.046     6.71514    -862.607     316.361    -546.246   -1.13465e-13   -7.99361e-15   -7.99361e-15
    5100        10.2     100.184     6.92136    -854.969     316.796    -538.173   -1.09506e-13   -4.66294e-15   -4.66294e-15
    5200        10.4     99.9605     1.07981    -863.705      316.09    -547.615   -1.13909e-13   -1.31076e-14   -1.31076e-14
    5300        10.6     100.012     3.69793    -864.557     316.252    -548.305     -1.113e-13   -1.31006e-14   -1.31006e-14
    5400        10.8     100.041     1.51522    -869.614     316.344    -553.269   -9.77274e-14   -1.31006e-14   -1.31006e-14
    5500          11     99.9259   -0.714883    -874.418     315.981    -558.438   -6.72795e-14   -1.53211e-14   -1.53211e-14
    5600        11.2     99.9562     -6.9326    -876.639     316.076    -560.563   -4.36873e-14    -2.5091e-14    -2.5091e-14
    5700        11.4     99.9858    -5.95735    -868.206      316.17    -552.036   -5.57332e-14   -4.77396e-14   -4.77396e-14
    5800        11.6     100.044    -3.16443    -859.816     316.353    -543.463    -3.8719e-14   -3.09544e-14   -3.09544e-14
    5900        11.8     100.129    -13.9072    -881.273     316.624    -564.648   -3.71925e-14    -2.7812e-14    -2.7812e-14
    6000          12     100.098     9.12185    -853.383     316.526    -536.857   -4.09672e-14   -4.87388e-14   -4.87388e-14
    6100        12.2      100.01     8.04574    -848.357     316.246    -532.111   -4.26326e-14   -5.27356e-14   -5.27356e-14
    6200        12.4     100.135     5.20092    -856.551     316.641    -539.911   -4.62963e-14   -5.54556e-14   -5.54556e-14
    6300        12.6     99.8115   -0.341325    -867.939     315.619     -552.32   -6.18394e-14   -4.66294e-14   -4.66294e-14
    6400        12.8     100.104    -10.9855    -878.801     316.545    -562.256   -5.39846e-14   -4.20775e-14   -4.20775e-14
    6500          13     99.8536    -11.0414    -872.754     315.752    -557.001   -2.80331e-14   -5.55112e-14   -5.55112e-14
    6600        13.2     99.9993    -6.33835    -862.793     316.213     -546.58   -3.61933e-14   -6.88338e-14   -6.88338e-14
    6700        13.4     99.7817   -0.968448    -853.694     315.525    -538.169    -1.9762e-14   -8.11851e-14   -8.11851e-14
    6800        13.6     100.012    -7.54507     -862.71     316.255    -546.456   -1.36557e-14   -9.61453e-14   -9.61453e-14
    6900        13.8     100.055    -5.70352    -867.581      316.39    -551.191   -4.44089e-15    -9.9365e-14    -9.9365e-14
    7000          14     100.169    0.125298    -860.226     316.748    -543.478   -1.39333e-14   -1.29674e-13   -1.29674e-13
    7100        14.2     99.8154    -2.44518    -882.208     315.631    -566.577    2.80331e-15   -1.09912e-13   -1.09912e-13
    7200        14.4     99.6685    -3.56501    -871.385     315.167    -556.218   -1.02141e-14   -1.01696e-13   -1.01696e-13
    7300        14.6     99.8736     21.0353    -840.049     315.815    -524.234   -3.85803e-15   -9.39249e-14   -9.39249e-14
    7400        14.8     99.7131      6.1937    -849.071     315.308    -533.763   -3.24185e-14   -1.25344e-13   -1.25344e-13
    7500          15     100.039     2.00012    -861.803     316.337    -545.466   -1.64313e-14   -1.15574e-13   -1.15574e-13
    7600        15.2     99.8598    0.826744    -855.575     315.772    -539.803    -2.4078e-15   -1.12993e-13   -1.12993e-13
    7700        15.4     99.9817   -0.716471    -856.572     316.157    -540.415    1.37113e-14   -1.22791e-13   -1.22791e-13
    7800        15.6     100.003   0.0580174    -858.346     316.224    -542.122    2.45359e-14   -1.20237e-13   -1.20237e-13
    7900        15.8     100.178    -3.37544    -858.072     316.778    -541.294    3.78031e-14   -1.13687e-13   -1.13687e-13
    8000          16     100.008     3.25806    -847.484      316.24    -531.244    4.36873e-14   -9.21485e-14   -9.21485e-14
    8100        16.2     100.008     5.77506    -839.452     316.241    -523.211    4.98213e-14   -1.08552e-13   -1.08552e-13
    8200        16.4     100.017     7.28537    -854.721     316.269    -538.452    3.70814e-14    -8.9484e-14    -8.9484e-14
    8300        16.6     100.045    -1.70201    -865.789     316.356    -549.433    4.82947e-14   -9.63674e-14   -9.63674e-14
    8400        16.8      99.891     4.21236    -859.296      315.87    -543.426     7.4829e-14   -9.42579e-14   -9.42579e-14
    8500          17     99.9275     3.59859    -866.352     315.986    -550.367    6.70575e-14   -7.72715e-14   -7.72715e-14
    8600        17.2     99.9454     18.9457    -843.405     316.042    -527.363    6.26166e-14   -6.63775e-14   -6.63775e-14
    8700        17.4     99.9525     1.39729    -874.851     316.065    -558.786    5.12368e-14   -7.78266e-14   -7.78266e-14
    8800        17.6     99.9573     3.44703    -869.057      316.08    -552.977    3.79141e-14   -4.82392e-14   -4.82392e-14
    8900        17.8     100.085     -10.688    -885.605     316.485     -569.12    5.55112e-14   -6.53921e-14   -6.53921e-14
    9000          18     99.9284     5.93532    -866.282     315.989    -550.293    3.90799e-14    -6.9722e-14    -6.9722e-14
    9100        18.2     100.016    -8.98029    -879.951     316.265    -563.686    4.63657e-14   -7.33302e-14   -7.33302e-14
    9200        18.4     99.8465     15.3236    -841.403      315.73    -525.673    4.91829e-14    -8.9595e-14    -8.9595e-14
    9300        18.6     100.078    0.171137    -854.626      316.46    -538.166    6.26166e-14   -7.91589e-14   -7.91589e-14
    9400        18.8     99.9996     4.70883    -851.126     316.214    -534.912    6.70575e-14   -7.17204e-14   -7.17204e-14
    9500          19     100.164     5.14395    -848.181     316.734    -531.447    8.06508e-14   -7.20535e-14   -7.20535e-14
    9600        19.2     100.029     5.68402    -843.636     316.305    -527.331    7.61613e-14   -6.67244e-14   -6.67244e-14
    9700        19.4     100.189    -12.1571    -871.119     316.813    -554.306    7.01661e-14   -6.21725e-14   -6.21725e-14
    9800        19.6     100.194    -2.84089    -859.168     316.828     -542.34    5.67879e-14   -2.91963e-14   -2.91963e-14
    9900        19.8      99.959     10.0284    -848.781     316.085    -532.695    6.26166e-14   -3.56382e-14   -3.56382e-14
   10000          20      100.09    -3.75542    -875.793     316.501    -559.293    5.66214e-14   -2.26485e-14   -2.26485e-14
   10100        20.2     99.8301     27.0482    -844.227     315.678    -528.549    9.12603e-14   -3.57492e-14   -3.57492e-14
   10200        20.4      99.777    -3.92623    -872.399      315.51    -556.889    1.04472e-13   -1.13243e-14   -1.13243e-14
   10300        20.6     100.212    -0.82308    -863.855     316.886    -546.969    9.21485e-14   -1.15463e-14   -1.15463e-14
   10400        20.8     100.012     5.69937    -866.488     316.252    -550.236    9.36057e-14   -8.88178e-15   -8.88178e-15
   10500          21     100.051     6.19656    -852.051     316.376    -535.676    8.50431e-14    1.90126e-14    1.90126e-14
   10600        21.2     99.7669      5.9478    -850.372     315.478    -534.894     7.4607e-14    4.69763e-15    4.69763e-15
   10700        21.4     100.003    0.768488    -858.468     316.223    -542.245    1.06803e-13    6.66134e-15    6.66134e-15
   10800        21.6     100.002    0.409479    -858.985     316.221    -542.763    8.83738e-14    5.21805e-15    5.21805e-15
   10900        21.8      99.788     13.6432    -837.078     315.545    -521.533    1.18794e-13    4.66294e-15    4.66294e-15
   11000          22      100.01    -4.17991    -877.686     316.247    -561.439    1.01363e-13   -1.95399e-14   -1.95399e-14
   11100        22.2     99.9685     3.04282    -864.342     316.115    -548.227    1.19238e-13    6.21725e-15    6.21725e-15
   11200        22.4     100.063    -7.08447    -878.609     316.414    -562.195    1.05638e-13     2.2593e-14     2.2593e-14
   11300        22.6     100.044     7.26545    -867.785     316.354    -551.432    1.43996e-13    3.21965e-15    3.21965e-15
   11400        22.8     99.8205      13.443    -855.635     315.647    -539.988    1.45661e-13    1.74583e-14    1.74583e-14
   11500          23      100.04    -5.81333    -873.183     316.342    -556.841    1.26343e-13    2.73809e-14    2.73809e-14
   11600        23.2     100.051    -1.08421    -857.076     316.377    -540.699     1.6509e-13     3.0094e-14     3.0094e-14
   11700        23.4     99.8361     6.26099    -847.552     315.697    -531.855    1.53433e-13    1.28786e-14    1.28786e-14
   11800        23.6     100.183    0.795494    -852.378     316.792    -535.586     1.3789e-13    2.20102e-14    2.20102e-14
   11900        23.8     99.9152    -10.6825    -870.747     315.947      -554.8    1.32894e-13    2.37588e-14    2.37588e-14
   12000          24     100.147    -4.11442    -861.768     316.678     -545.09    1.13687e-13    2.25375e-14    2.25375e-14
   12100        24.2     100.053     5.12562    -854.281     316.383    -537.898    1.45661e-13              0              0
   12200        24.4      99.855      2.9142     -861.72     315.757    -545.964    1.52101e-13    1.90958e-14    1.90958e-14
   12300        24.6     100.055     3.14348    -866.443      316.39    -550.053    1.45217e-13    2.90878e-14    2.90878e-14
   12400        24.8     99.9909    -8.81132     -875.45     316.186    -559.264    1.27454e-13    2.33147e-14    2.33147e-14
   12500          25     100.257     3.82433    -855.622     317.027    -538.595    1.39111e-13    1.95399e-14    1.95399e-14
   12600        25.2     100.124     16.9332    -840.277     316.608    -523.669    1.19682e-13    1.44329e-14    1.44329e-14
   12700        25.4     100.018    -1.08669    -857.661     316.272    -541.389     1.1191e-13    1.95399e-14    1.95399e-14
   12800        25.6     100.117    -0.39113    -859.674     316.586    -543.087    1.30368e-13    9.37618e-15    9.37618e-15
   12900        25.8     99.8043    -8.17523    -874.691     315.596    -559.095    1.55875e-13   -6.66134e-15   -6.66134e-15
   13000          26     100.271     1.11509    -863.225     317.071    -546.154    1.75554e-13    3.75255e-14    3.75255e-14
   13100        26.2     100.017     8.24005    -845.056     316.268    -528.788    1.65257e-13    2.32037e-14    2.32037e-14
   13200        26.4     100.039     11.3006    -848.414     316.337    -532.076    1.69864e-13     2.2593e-14     2.2593e-14
   13300        26.6     100.044     4.14412    -853.624     316.355    -537.269    1.56652e-13    5.10703e-15    5.10703e-15
   13400        26.8     99.9221     5.76304    -849.744     315.969    -533.776    1.57103e-13    1.07692e-14    1.07692e-14
   13500          27     100.187    -1.10227    -857.112     316.807    -540.305    1.49769e-13    1.57097e-14    1.57097e-14
   13600        27.2     100.125   -0.400668    -856.738      316.61    -540.127    1.45883e-13    1.02141e-14    1.02141e-14
   13700        27.4     99.8125     5.07831    -858.317     315.622    -542.695    1.23235e-13    7.79932e-15    7.79932e-15
   13800        27.6     99.8224     11.5142    -846.687     315.654    -531.033    1.24123e-13    1.55431e-14    1.55431e-14
   13900        27.8     100.123    -3.89702     -869.33     316.603    -552.727    1.36557e-13    1.89848e-14    1.89848e-14
   14000          28     100.007    -5.34725    -869.248     316.236    -553.013    1.38223e-13    2.02061e-14    2.02061e-14
   14100        28.2     100.043    -7.60866     -870.23      316.35    -553.879    1.02751e-13    2.73254e-14    2.73254e-14
   14200        28.4      100.08     5.18307    -852.944     316.468    -536.477    1.11022e-13    3.13638e-14    3.13638e-14
   14300        28.6     99.9316    -6.23997     -857.14     315.999    -541.141    1.35891e-13     2.4869e-14     2.4869e-14
   14400        28.8     99.8915    -9.68032    -865.534     315.872    -549.663    1.48576e-13    3.85247e-14    3.85247e-14
   14500          29     99.9122     7.04659    -839.221     315.937    -523.284    1.53419e-13    3.51941e-14    3.51941e-14
   14600        29.2      99.842    -4.19536     -865.21     315.715    -549.495    1.65146e-13    2.70894e-14    2.70894e-14
   14700        29.4     99.8369     2.80642    -867.887     315.699    -552.188    1.71529e-13    5.16254e-15    5.16254e-15
   14800        29.6     100.016    -2.31632    -870.032     316.267    -553.766     1.7053e-13    8.77076e-15    8.77076e-15
   14900        29.8     99.9432     1.44808    -869.209     316.035    -553.173    1.79134e-13   -1.14908e-14   -1.14908e-14
   15000          30     100.065      11.701    -859.773     316.419    -543.354    2.13586e-13   -2.34257e-14   -2.34257e-14
   15100        30.2     100.021   -0.182474    -872.747     316.281    -556.467    2.12275e-13   -1.13243e-14   -1.13243e-14
   15200        30.4     100.043    -4.17182    -873.683     316.351    -557.332    2.12275e-13    1.31596e-14    1.31596e-14
   15300        30.6     99.9521     7.45402    -865.575     316.063    -549.512    1.98952e-13   -8.88178e-15   -8.88178e-15
   15400        30.8     100.008    -7.38203    -878.812     316.242     -562.57    2.00728e-13   -2.43694e-14   -2.43694e-14
   15500          31     99.9129     -7.1982    -876.501      315.94    -560.561    1.86962e-13   -3.44169e-14   -3.44169e-14
   15600        31.2     100.048     3.64388    -842.898     316.368     -526.53    1.91847e-13   -2.44665e-14   -2.44665e-14
   15700        31.4     99.9483     3.95024    -853.921     316.052    -537.869    1.79301e-13   -3.68594e-14   -3.68594e-14
   15800        31.6     99.9357    0.515243    -869.831     316.012    -553.819    1.74478e-13   -2.90878e-14   -2.90878e-14
   15900        31.8      100.09     7.10237    -855.656     316.498    -539.158    1.83825e-13   -2.95319e-14   -2.95319e-14
   16000          32     100.092     10.1343    -853.093     316.505    -536.588    1.76831e-13   -2.37588e-14   -2.37588e-14
   16100        32.2     99.9539    -5.87691     -865.57     316.069      -549.5    1.48992e-13    4.19109e-15    4.19109e-15
   16200        32.4     100.023     2.52342    -856.397     316.289    -540.108    1.88904e-13    6.55032e-15    6.55032e-15
   16300        32.6     100.184     22.0617    -837.855     316.797    -521.059    2.00284e-13    2.34257e-14    2.34257e-14
   16400        32.8     99.9705     14.5169    -847.378     316.122    -531.256    1.78746e-13      2.498e-14      2.498e-14
   16500          33     99.8843     2.75808    -863.807     315.849    -547.958    1.80078e-13    2.18159e-14    2.18159e-14
   16600        33.2     100.021    -5.88774    -883.709      316.28    -567.429    1.64535e-13    3.13083e-14    3.13083e-14
   16700        33.4     100.018     2.55844    -869.381     316.272    -553.109    1.84741e-13    9.65894e-15    9.65894e-15
   16800        33.6     99.9341    -3.09318    -867.065     316.007    -551.059    1.87295e-13    1.87628e-14    1.87628e-14
   16900        33.8     100.023   -0.431055    -860.751     316.288    -544.463    1.86517e-13    2.69229e-14    2.69229e-14
   17000          34     100.073    -9.46295    -868.809     316.445    -552.364     2.0739e-13    1.74305e-14    1.74305e-14
   17100        34.2     100.026     7.56186    -844.698     316.296    -528.402    2.46803e-13    3.31957e-14    3.31957e-14
   17200        34.4     99.8789     4.28108    -860.661     315.832    -544.829    2.44027e-13    3.68906e-14    3.68906e-14
   17300        34.6     100.037    -5.13206    -873.521     316.332    -557.189    2.34202e-13    2.28151e-14    2.28151e-14
   17400        34.8     99.9526     3.84984    -861.953     316.065    -545.888    2.31593e-13    3.06422e-14    3.06422e-14
   17500          35     99.7737     3.38327    -852.307     315.499    -536.807    2.20345e-13    4.59632e-14    4.59632e-14
   17600        35.2       99.91    0.867953    -865.323      315.93    -549.392    2.15605e-13    3.39728e-14    3.39728e-14
   17700        35.4     100.029      0.9141    -857.057     316.305    -540.752     2.3799e-13     3.5083e-14     3.5083e-14
   17800        35.6     100.113    -17.6661    -888.324     316.573    -571.751    2.39642e-13    2.04003e-14    2.04003e-14
   17900        35.8     99.8229   -0.351736     -867.48     315.655    -551.825    2.48801e-13    1.54321e-14    1.54321e-14
   18000          36     100.106    -4.88847    -867.692     316.552     -551.14    2.59792e-13   -2.16493e-15   -2.16493e-15
   18100        36.2     99.9607       5.467    -853.114     316.091    -537.023    2.58488e-13   -8.10463e-15   -8.10463e-15
   18200        36.4     100.197    0.367814    -859.898     316.838     -543.06    2.52243e-13   -4.06342e-14   -4.06342e-14
   18300        36.6     100.032    -1.81435    -873.252     316.315    -556.937    2.69007e-13   -3.77476e-14   -3.77476e-14
   18400        36.8     100.084     11.1221    -864.114      316.48    -547.634    2.54019e-13   -1.80689e-14   -1.80689e-14
   18500          37     99.8535     9.54778    -855.082     315.752    -539.331    2.49134e-13   -1.32117e-14   -1.32117e-14
   18600        37.2      99.897     6.28399    -859.535     315.889    -543.646    2.62568e-13   -8.21565e-15   -8.21565e-15
   18700        37.4     99.9627     15.8323    -851.567     316.097     -535.47    2.69729e-13    9.99201e-16    9.99201e-16
   18800        37.6     100.078    -0.45212    -865.879     316.462    -549.417    2.89324e-13    1.63203e-14    1.63203e-14
   18900        37.8     99.9502     3.70579    -857.924     316.057    -541.866    2.75335e-13     5.9952e-15     5.9952e-15
   19000          38     99.9521     12.2613    -848.187     316.064    -532.124    2.79776e-13    1.79856e-14    1.79856e-14
   19100        38.2     99.9633     27.2779    -826.007     316.099    -509.908    3.03355e-13   -4.88498e-15   -4.88498e-15
   19200        38.4     100.052     3.81409    -854.296      316.38    -537.917    2.97096e-13   -1.57652e-14   -1.57652e-14
   19300        38.6     100.017    -4.41531    -860.942     316.268    -544.675     2.8455e-13   -2.47302e-14   -2.47302e-14
   19400        38.8     100.128    -6.77974     -855.46     316.618    -538.841    2.98928e-13   -2.02616e-14   -2.02616e-14
   19500          39     99.8899   -0.710308    -850.367     315.867      -534.5    3.28307e-13   -3.59712e-14   -3.59712e-14
   19600        39.2     100.033    -6.30734     -862.69     316.319     -546.37    3.12084e-13   -3.20854e-14   -3.20854e-14
   19700        39.4     99.8436    -4.54313    -859.451      315.72    -543.731    2.91878e-13   -8.22675e-14   -8.22675e-14
   19800        39.6     99.8653     14.4324    -834.176     315.789    -518.387    3.19522e-13    -6.7453e-14    -6.7453e-14
   19900        39.8     100.005    -12.0108     -879.91     316.231    -563.679      3.193e-13   -6.16174e-14   -6.16174e-14
   20000          40     100.095     1.09206    -864.097     316.517     -547.58    3.17968e-13   -7.68274e-14   -7.68274e-14
   20100        40.2      100.03    -6.31095    -876.487      316.31    -560.177    2.98761e-13   -6.32272e-14   -6.32272e-14
   20200        40.4     99.8896    -2.97598    -870.031     315.866    -554.165    3.28626e-13   -6.68909e-14   -6.68909e-14
   20300        40.6     99.9584     21.4275    -844.674     316.083    -528.591     3.3562e-13   -5.10703e-14   -5.10703e-14
   20400        40.8     100.068    -1.40991    -873.224     316.429    -556.796    3.09808e-13   -5.57332e-14   -5.57332e-14
   20500          41     99.8878     3.63396    -858.029      315.86    -542.169    3.38063e-13   -6.04794e-14   -6.04794e-14
   20600        41.2     99.9827    -2.34155    -869.279      316.16    -553.119     3.2685e-13   -6.64052e-14   -6.64052e-14
   20700        41.4     100.068     2.54635     -854.41      316.43     -537.98    3.54605e-13   -7.85344e-14   -7.85344e-14
   20800        41.6     99.8874     11.7733    -856.575     315.859    -540.716     3.5999e-13   -7.44405e-14   -7.44405e-14
   20900        41.8     99.9245   -0.885067    -878.655     315.976    -562.679    3.51719e-13   -6.92779e-14   -6.92779e-14
   21000          42     99.8821    -1.65992    -868.058     315.842    -552.216    3.67262e-13   -7.03881e-14   -7.03881e-14
   21100        42.2     100.035    -1.99342    -860.839     316.326    -544.513    3.52163e-13   -6.88893e-14   -6.88893e-14
   21200        42.4      99.956    0.741688    -850.105     316.076     -534.03    3.63487e-13   -7.90479e-14   -7.90479e-14
   21300        42.6     99.9709    0.425414    -862.054     316.123    -545.931    3.89661e-13   -9.03722e-14   -9.03722e-14
   21400        42.8     100.288     -1.7059    -871.935     317.125     -554.81    3.81528e-13   -6.37268e-14   -6.37268e-14
   21500          43       99.84     4.50071    -870.728     315.709    -555.019    3.87246e-13   -6.69464e-14   -6.69464e-14
   21600        43.2     100.221     14.3689    -859.446     316.913    -542.533    3.88939e-13   -8.54872e-14   -8.54872e-14
   21700        43.4     100.125     7.62008    -861.038      316.61    -544.429    3.86163e-13   -7.83817e-14   -7.83817e-14
   21800        43.6      100.12    -4.18642    -874.515     316.596     -557.92    3.71037e-13   -8.42382e-14   -8.42382e-14
   21900        43.8     99.9473     5.86294    -859.424     316.048    -543.376    3.76837e-13   -6.78069e-14   -6.78069e-14
   22000          44     99.9941     6.36156    -873.816     316.196     -557.62    3.91465e-13   -7.24976e-14   -7.24976e-14
   22100        44.2     100.018     9.03178    -868.616     316.272    -552.344    3.80362e-13   -6.15064e-14   -6.15064e-14
   22200        44.4     100.095     8.22251    -864.595     316.517    -548.078    3.91298e-13   -9.33698e-14   -9.33698e-14
   22300        44.6     99.8703     0.25928    -868.257     315.805    -552.453    3.87024e-13    -6.4837e-14    -6.4837e-14
   22400        44.8     99.9975   -0.646533    -868.787     316.207     -552.58    3.90799e-13   -5.82867e-14   -5.82867e-14
   22500          45     99.8051    0.564813    -869.067     315.599    -553.468    3.88578e-13   -6.27554e-14   -6.27554e-14
   22600        45.2     99.8668    -5.55789    -880.004     315.794     -564.21     3.7581e-13   -7.18869e-14   -7.18869e-14
   22700        45.4     100.134     10.1766    -861.621      316.64    -544.981    3.87357e-13   -5.11639e-14   -5.11639e-14
   22800        45.6     100.123     12.8898      -862.9     316.605    -546.296    3.82541e-13   -4.32432e-14   -4.32432e-14
   22900        45.8     99.9619     1.68369     -876.41     316.094    -560.316    3.87912e-13   -4.59632e-14   -4.59632e-14
   23000          46     99.8495     2.14913    -865.579     315.739     -549.84    3.80251e-13   -4.52971e-14   -4.52971e-14
   23100        46.2     100.151      9.9098    -849.917     316.694    -533.223    3.92131e-13   -5.57332e-14   -5.57332e-14
   23200        46.4     99.8885     13.3667    -858.133     315.862    -542.271    4.04343e-13   -3.75255e-14   -3.75255e-14
   23300        46.6      99.838    -4.87378    -883.558     315.703    -567.855    3.91465e-13   -4.00791e-14   -4.00791e-14
   23400        46.8     100.057    -8.56236    -882.386     316.396     -565.99    3.89466e-13   -2.45359e-14   -2.45359e-14
   23500          47     99.9303     2.23956    -863.852     315.995    -547.858    3.94185e-13   -2.58127e-14   -2.58127e-14
   23600        47.2     99.8739    0.571046    -869.605     315.816    -553.789    3.68594e-13   -3.04756e-14   -3.04756e-14
   23700        47.4     99.9823     9.42859    -858.885     316.159    -542.727    3.75033e-13   -4.81837e-14   -4.81837e-14