       0           0         100     17.7981           0     316.215     316.215    5.50948e-15   -5.55112e-15   -5.55112e-15
     100         0.2     100.136     10.8033    -896.745     316.644    -580.101    1.67644e-14    2.70339e-14    2.70339e-14
     200         0.4     99.9163    -2.01248    -883.473      315.95    -567.522    2.02061e-14    1.66533e-15    1.66533e-15
     300         0.6     99.8748     6.59466    -858.664     315.819    -542.845   -8.20177e-15    1.08802e-14    1.08802e-14
     400         0.8     100.194   -0.727149    -867.005     316.829    -550.176   -1.31006e-14   -3.77476e-15   -3.77476e-15
     500           1     100.042     4.71017    -853.092     316.349    -536.744   -4.88498e-15    1.19904e-14    1.19904e-14
     600         1.2     99.9988    -7.15072    -860.468     316.211    -544.256   -2.09277e-14   -7.54952e-15   -7.54952e-15
     700         1.4       100.1     2.76952      -846.5     316.531    -529.969   -1.54321e-14    8.36831e-15    8.36831e-15
     800         1.6     100.057     12.7173    -834.641     316.395    -518.246    -1.7264e-14    2.07612e-14    2.07612e-14
     900         1.8     99.9683     10.6823    -824.766     316.115    -508.651   -2.73115e-14    3.79696e-14    3.79696e-14
    1000           2     99.8552    -15.0918    -857.163     315.757    -541.406   -4.03011e-14    2.44527e-14    2.44527e-14
    1100         2.2     100.012      5.1344    -829.245     316.251    -512.993   -2.07612e-14    4.70179e-14    4.70179e-14
    1200         2.4     99.9952     7.30111    -828.754       316.2    -512.554   -3.80251e-14    3.54161e-14    3.54161e-14
    1300         2.6     100.049   -0.522455    -835.139     316.369     -518.77   -2.57572e-14    3.07532e-14    3.07532e-14
    1400         2.8     100.207    -7.10179     -854.66      316.87     -537.79   -1.56472e-14    2.70201e-14    2.70201e-14
    1500           3     100.249     16.1886    -819.583     317.002    -502.581   -1.32394e-14    3.90799e-14    3.90799e-14
    1600         3.2     99.9581    -0.80253    -836.786     316.082    -520.703   -2.10942e-14     4.4631e-14     4.4631e-14
    1700         3.4     100.001     5.46831      -829.9     316.219    -513.681   -2.32444e-14    5.35127e-14    5.35127e-14
    1800         3.6     99.9018     3.96009    -821.807     315.905    -505.902   -5.68989e-15    2.86993e-14    2.86993e-14
    1900         3.8     100.012     5.84536    -819.535     316.254    -503.281   -1.79856e-14    4.10783e-14    4.10783e-14
    2000           4     99.8584     6.21902    -822.611     315.767    -506.843    -2.4869e-14    3.55271e-14    3.55271e-14
    2100         4.2     100.047    -9.24102    -835.681     316.365    -519.316    -2.7367e-14    5.18474e-14    5.18474e-14
    2200         4.4     99.9005     5.26527    -823.896       315.9    -507.996   -3.75533e-14    7.89924e-14    7.89924e-14
    2300         4.6     99.8185    -6.53634    -839.844     315.641    -524.203   -4.84057e-14    7.01661e-14    7.01661e-14
    2400         4.8     99.9734   -0.705496    -825.066     316.131    -508.935   -5.12923e-14    7.90479e-14    7.90479e-14
    2500           5     100.125     2.66936    -814.137     316.611    -497.526   -4.11893e-14    7.11375e-14    7.11375e-14
    2600         5.2     100.037     5.73856     -822.85     316.331    -506.519   -6.37268e-14    5.85643e-14    5.85643e-14
    2700         5.4      99.907     8.67243    -811.484     315.921    -495.563   -6.43929e-14    6.08957e-14    6.08957e-14
    2800         5.6     99.8555    -5.24182    -837.391     315.758    -521.633   -7.86038e-14    4.78506e-14    4.78506e-14
    2900         5.8     100.029      7.9532    -822.038     316.307    -505.731   -6.83897e-14    4.08562e-14    4.08562e-14
    3000           6     99.9648    -4.06746    -835.046     316.104    -518.942   -6.01741e-14    5.30687e-14    5.30687e-14
    3100         6.2     99.8764     10.8137    -811.178     315.824    -495.353   -7.39409e-14    3.50275e-14    3.50275e-14
    3200         6.4     99.9927    0.505615    -820.193     316.192    -504.002   -6.72795e-14    8.43769e-15    8.43769e-15
    3300         6.6     100.165    -10.7812    -842.738     316.736    -526.002   -7.79377e-14    2.15383e-14    2.15383e-14
    3400         6.8     100.024     1.77084    -818.267     316.291    -501.976   -7.43849e-14    2.28706e-14    2.28706e-14
    3500           7     100.007     1.18718    -823.538     316.237    -507.301   -5.90639e-14   -1.53211e-14   -1.53211e-14
    3600         7.2     100.195     6.33364    -819.787     316.833    -502.954   -4.67404e-14   -6.66134e-15   -6.66134e-15
    3700         7.4     100.018     8.72812    -823.863     316.272    -507.592   -4.78506e-14    -1.4877e-14    -1.4877e-14
    3800         7.6      99.978     2.50552     -815.47     316.145    -499.325   -6.03961e-14    -1.5099e-14    -1.5099e-14
    3900         7.8     100.118    -6.57303    -827.388     316.587    -510.801    -6.6086e-14   -1.84297e-14   -1.84297e-14
    4000           8     99.8945    -5.83164    -832.689     315.881    -516.807   -4.86278e-14   -3.03091e-14   -3.03091e-14
    4100         8.2     100.053     2.50877    -826.485     316.384    -510.101   -3.78586e-14   -3.89411e-14   -3.89411e-14
    4200         8.4     100.011    -2.43035     -828.33      316.25     -512.08   -3.61933e-14    -4.2133e-14    -4.2133e-14
    4300         8.6     99.8859    -2.29357    -812.458     315.854    -496.603   -2.70894e-14   -3.17524e-14   -3.17524e-14
    4400         8.8     100.074    -9.43016     -831.43     316.448    -514.982   -1.91236e-14   -3.16414e-14   -3.16414e-14
    4500           9     100.067   -0.362646    -820.616     316.428    -504.188   -3.52496e-14   -4.76771e-14   -4.76771e-14
    4600         9.2     100.144    -4.84926    -828.043     316.672    -511.371   -3.63598e-14   -5.66769e-14   -5.66769e-14
    4700         9.4     99.9823    -3.12598     -827.81     316.159    -511.651   -2.65343e-14    -5.4623e-14    -5.4623e-14
    4800         9.6     100.025    -4.84451    -833.645     316.295    -517.349   -2.07612e-14   -4.77396e-14   -4.77396e-14
    4900         9.8     99.9792     3.01903    -827.093     316.149    -510.943   -1.65423e-14   -5.59552e-14   -5.59552e-14
    5000          10     99.9566    -9.17759    -837.604     316.078    -521.526   -5.80092e-15   -6.06182e-14   -6.06182e-14
    5100        10.2      100.08    -9.02493    -828.791     316.469    -512.322    1.80411e-14   -8.12683e-14   -8.12683e-14
    5200        10.4     99.9988    -7.64992    -817.187     316.211    -500.976    3.39728e-14   -7.30527e-14   -7.30527e-14
    5300        10.6     99.8754    -10.4409    -828.362     315.821    -512.541    6.80567e-14   -6.70575e-14   -6.70575e-14
    5400        10.8     99.9534    0.424592    -816.795     316.068    -500.728    3.39728e-14   -6.39419e-14   -6.39419e-14
    5500          11     100.036    -4.09405    -822.478      316.33    -506.148    3.67484e-14   -7.22339e-14   -7.22339e-14
    5600        11.2     99.7991    -11.3321    -839.728      315.58    -524.149    3.24185e-14   -6.38378e-14   -6.38378e-14
    5700        11.4      99.959    -6.36796    -825.158     316.086    -509.072    2.38698e-14   -7.61613e-14   -7.61613e-14
    5800        11.6     99.9043    -7.61849    -843.061     315.913    -527.148    2.80331e-14   -6.52811e-14   -6.52811e-14
    5900        11.8     99.9061     2.00906    -841.094     315.918    -525.176    3.53606e-14   -2.93099e-14   -2.93099e-14
    6000          12     99.9902     3.68546    -847.194     316.184     -531.01    6.02851e-14   -5.06262e-14   -5.06262e-14
    6100        12.2     99.9122     4.88735    -846.975     315.937    -531.037      5.973e-14   -8.39329e-14   -8.39329e-14
    6200        12.4     99.9443    -2.04985    -850.991     316.039    -534.952    5.39568e-14    -1.0969e-13    -1.0969e-13
    6300        12.6     100.175     1.49293     -846.09     316.769     -529.32    6.93889e-14   -1.24789e-13   -1.24789e-13
    6400        12.8     99.9688    0.969741    -853.085     316.116    -536.969    5.71765e-14   -1.17045e-13   -1.17045e-13
    6500          13     99.9736    -4.65959     -858.91     316.132    -542.779    7.28584e-14   -1.12799e-13   -1.12799e-13
    6600        13.2     99.9415    -2.82107    -838.077      316.03    -522.047     8.4599e-14   -1.05915e-13   -1.05915e-13
    6700        13.4     100.064    -1.33316    -827.874     316.418    -511.456    1.01641e-13   -9.22595e-14   -9.22595e-14
    6800        13.6     100.121    -3.52578    -842.735     316.597    -526.137     8.4599e-14   -8.26006e-14   -8.26006e-14
    6900        13.8     100.074     7.56201    -827.296     316.449    -510.847     8.9817e-14   -9.71306e-14   -9.71306e-14
    7000          14     100.362     13.1969    -814.775     317.361    -497.415    1.03473e-13   -1.04153e-13   -1.04153e-13
    7100        14.2     100.112     2.86633    -835.375     316.569    -518.806    8.16638e-14   -1.03029e-13   -1.03029e-13
    7200        14.4     100.011    -3.63025    -840.997      316.25    -524.747    7.74936e-14    -1.0425e-13    -1.0425e-13
    7300        14.6     100.106    -12.5097    -842.299     316.551    -525.749     8.0283e-14   -8.12128e-14   -8.12128e-14
    7400        14.8     99.9979    -14.7564    -846.058     316.208     -529.85     9.4369e-14   -7.45307e-14   -7.45307e-14
    7500          15     100.075    -2.72115    -831.514     316.454     -515.06    8.37108e-14   -7.27196e-14   -7.27196e-14
    7600        15.2     99.9382    0.424129    -833.055     316.019    -517.036    9.68114e-14   -5.68434e-14   -5.68434e-14
    7700        15.4     99.9148    -9.22703    -838.991     315.946    -523.045    8.63754e-14   -2.93099e-14   -2.93099e-14
    7800        15.6     99.9214    -8.84714    -841.574     315.966    -525.608    9.17599e-14   -2.34257e-14   -2.34257e-14
    7900        15.8      99.998    -6.31401    -846.585     316.209    -530.377    9.03722e-14    8.35443e-15    8.35443e-15
    8000          16     100.099     3.30103    -826.007     316.528    -509.479    8.68611e-14    6.82787e-15    6.82787e-15
    8100        16.2      100.19     3.44221    -818.831     316.817    -502.014    9.79217e-14    4.88498e-15    4.88498e-15
    8200        16.4     100.254     5.01423    -817.235     317.018    -500.217    6.61693e-14    6.66134e-16    6.66134e-16
    8300        16.6     99.9051    0.554237    -826.421     315.915    -510.506       6.95e-14    9.21485e-15    9.21485e-15
    8400        16.8     99.9728    -4.35223    -834.219     316.129     -518.09    7.59393e-14    1.55431e-15    1.55431e-15
    8500          17     100.157     3.73493    -826.035     316.712    -509.323    8.88178e-14   -1.69864e-14   -1.69864e-14
    8600        17.2     99.9278    -3.42471    -835.083     315.987    -519.096    9.39214e-14   -2.83107e-15   -2.83107e-15
    8700        17.4     99.9451     7.00663    -825.311     316.041    -509.269    8.50431e-14   -4.44089e-16   -4.44089e-16
    8800        17.6     99.9492     -3.5165    -834.778     316.054    -518.724    6.82093e-14    6.32827e-15    6.32827e-15
    8900        17.8     99.7587    -3.38952     -834.77     315.452    -519.318    6.58362e-14    2.81997e-14    2.81997e-14
    9000          18      99.947     4.20204    -825.801     316.047    -509.754     5.1608e-14    1.70974e-14    1.70974e-14
    9100        18.2     99.8216    -6.17049    -844.823     315.651    -529.172    6.05072e-14    3.05311e-14    3.05311e-14
    9200        18.4     99.9509     -0.7794    -841.809      316.06     -525.75    8.79574e-14    3.67137e-14    3.67137e-14
    9300        18.6     100.031       -1.98    -839.614     316.313    -523.301    5.82312e-14    3.25573e-14    3.25573e-14
    9400        18.8     100.085     9.30932    -827.215     316.485     -510.73    7.86038e-14    3.01981e-14    3.01981e-14
    9500          19     99.9654    -9.12011    -847.387     316.106    -531.281    8.16014e-14    1.95122e-14    1.95122e-14
    9600        19.2     100.064     13.0634     -813.99     316.417    -497.573     9.1871e-14    6.52256e-15    6.52256e-15
    9700        19.4     100.114    -1.50449    -835.969     316.576    -519.393    9.19265e-14   -2.26485e-14   -2.26485e-14
    9800        19.6     100.049     3.78897    -831.434      316.37    -515.064    9.12603e-14   -2.77556e-14   -2.77556e-14
    9900        19.8     99.9558     3.51496    -821.743     316.075    -505.668    7.37188e-14   -5.68434e-14   -5.68434e-14
   10000          20     100.012      4.0363     -814.85     316.251    -498.599    8.23785e-14   -3.61933e-14   -3.61933e-14
   10100        20.2     99.8983    -7.83733    -836.315     315.893    -520.422    9.59788e-14   -4.51861e-14   -4.51861e-14
   10200        20.4     99.8959     1.95446    -821.053     315.886    -505.168    9.50351e-14   -6.66134e-16   -6.66134e-16
   10300        20.6     99.9356      5.0156    -819.161     316.011    -503.149    9.30367e-14   -1.59872e-14   -1.59872e-14
   10400        20.8     99.8618    -6.57859    -835.297     315.778    -519.519    8.71525e-14   -1.70974e-14   -1.70974e-14
   10500          21     99.9157    -9.89283    -840.649     315.948    -524.701    7.12763e-14   -2.54241e-14   -2.54241e-14
   10600        21.2     99.8462     12.9121    -815.742     315.729    -500.013    7.36078e-14   -3.24185e-14   -3.24185e-14
   10700        21.4      99.937    -3.81986    -838.236     316.016    -522.221     8.4821e-14   -2.18714e-14   -2.18714e-14
   10800        21.6     99.9441     4.95771    -824.621     316.038    -508.583    1.06359e-13   -9.32587e-15   -9.32587e-15
   10900        21.8     99.9664     6.59267    -820.058     316.109     -503.95    1.19238e-13   -3.55271e-15   -3.55271e-15
   11000          22      100.24   -0.828057    -829.191     316.973    -512.218    1.28786e-13    7.54952e-15    7.54952e-15
   11100        22.2     100.036     2.17419    -825.486     316.328    -509.158    1.49547e-13   -8.43769e-15   -8.43769e-15
   11200        22.4     100.185    -2.28987    -841.412     316.799    -524.612    1.39833e-13   -8.24341e-15   -8.24341e-15
   11300        22.6     99.9536   -0.936237    -839.435     316.068    -523.366    1.38112e-13   -2.03587e-14   -2.03587e-14
   11400        22.8      99.863     1.10112    -841.824     315.782    -526.043    1.56597e-13    2.44249e-15    2.44249e-15
   11500          23     100.035    -1.48699    -843.512     316.327    -527.185    1.58651e-13    1.28786e-14    1.28786e-14
   11600        23.2     100.046    -16.5683    -854.108     316.361    -537.746    1.38833e-13    8.99281e-15    8.99281e-15
   11700        23.4         100    0.288829    -832.152     316.215    -515.937    1.31672e-13     2.9976e-14     2.9976e-14
   11800        23.6     99.9773    -5.18864     -836.02     316.143    -519.877    1.43718e-13    1.59109e-14    1.59109e-14
   11900        23.8     100.056    0.733271    -835.929     316.392    -519.537     1.2812e-13   -3.33067e-16   -3.33067e-16
   12000          24     99.9289    -2.52023    -835.259      315.99    -519.269    1.52878e-13    2.44249e-15    2.44249e-15
   12100        24.2      99.984    -3.69994    -829.626     316.164    -513.461    1.52101e-13   -1.22125e-15   -1.22125e-15
   12200        24.4     99.9782     4.16418    -826.425     316.146    -510.279    1.50324e-13    3.33067e-15    3.33067e-15
   12300        24.6     100.034    -4.35275    -840.416     316.323    -524.093     1.3882e-13   -4.21885e-15   -4.21885e-15
   12400        24.8     99.9016     -8.7911    -842.421     315.904    -526.517    1.16573e-13    1.60982e-15    1.60982e-15
   12500          25     99.8479     1.29568    -823.369     315.734    -507.635    1.09912e-13   -7.93809e-15   -7.93809e-15
   12600        25.2     99.9597    0.411337    -831.366     316.088    -515.278    1.34781e-13   -9.76996e-15   -9.76996e-15
   12700        25.4     99.7996    -5.69204    -828.748     315.581    -513.166    1.30451e-13   -2.28706e-14   -2.28706e-14
   12800        25.6     100.086    -4.41167    -817.736     316.487    -501.249    1.14131e-13   -3.15303e-14   -3.15303e-14
   12900        25.8     100.158    -1.93235    -820.944     316.714     -504.23    1.21209e-13   -3.35842e-14   -3.35842e-14
   13000          26     99.8208     12.9814    -813.418     315.649    -497.769    1.05457e-13    -3.5083e-14    -3.5083e-14
   13100        26.2     100.075     9.17644    -826.206     316.452    -509.754    1.06137e-13   -4.62963e-14   -4.62963e-14
   13200        26.4     99.9041    -8.76611     -846.36     315.912    -530.448    1.00142e-13   -2.30926e-14   -2.30926e-14
   13300        26.6     100.006  -0.0515621    -826.469     316.234    -510.235    1.13021e-13   -4.95159e-14   -4.95159e-14
   13400        26.8     100.201    0.319463    -828.157     316.851    -511.306    1.50879e-13   -6.40599e-14   -6.40599e-14
   13500          27     100.178     2.24333    -825.214     316.779    -508.435    1.42109e-13   -5.21805e-14   -5.21805e-14
   13600        27.2     99.9517    -5.67476    -827.761     316.062    -511.699    1.47771e-13   -3.83027e-14   -3.83027e-14
   13700        27.4     100.242     0.45508    -824.491      316.98    -507.511    1.39777e-13   -3.71925e-14   -3.71925e-14
   13800        27.6     100.085    -2.26733    -833.622     316.483    -517.139    1.31339e-13   -3.90799e-14   -3.90799e-14
   13900        27.8     99.8616     8.89868    -817.176     315.777    -501.398    1.26454e-13   -5.53446e-14   -5.53446e-14
   14000          28      99.964    -2.79652    -827.488     316.101    -511.387    1.25316e-13   -5.27078e-14   -5.27078e-14
   14100        28.2     99.8189    0.436045    -834.311     315.642    -518.669    1.19793e-13    -6.4726e-14    -6.4726e-14
   14200        28.4     100.057     5.28807    -837.503     316.396    -521.107    1.25233e-13   -7.91589e-14   -7.91589e-14
   14300        28.6     99.9977    -5.75744    -842.344     316.208    -526.137    1.04389e-13   -9.17877e-14   -9.17877e-14
   14400        28.8     99.8942    -5.32415    -841.042      315.88    -525.161    1.15241e-13   -9.90319e-14   -9.90319e-14
   14500          29     100.011     5.20128    -838.792     316.249    -522.543    1.11244e-13   -1.04139e-13   -1.04139e-13
   14600        29.2     99.8625   0.0519192    -845.652      315.78    -529.871    1.01447e-13   -8.12683e-14   -8.12683e-14
   14700        29.4     99.8828    -5.48336    -853.718     315.844    -537.874    1.05492e-13   -8.90399e-14   -8.90399e-14
   14800        29.6     100.089     3.30901    -824.091     316.495    -507.596    1.10356e-13   -7.77156e-14   -7.77156e-14
   14900        29.8     99.9375   -0.679082    -832.949     316.017    -516.932    9.89209e-14   -5.45952e-14   -5.45952e-14
   15000          30     100.077    -4.92605     -835.65     316.459    -519.191    8.60978e-14   -4.66294e-14   -4.66294e-14
   15100        30.2     100.044    -10.9605     -844.24     316.353    -527.887    9.73666e-14   -2.08722e-14   -2.08722e-14
   15200        30.4     99.9466   0.0620626    -821.015     316.046    -504.969    9.10383e-14   -3.66374e-14   -3.66374e-14
   15300        30.6     99.8555    -2.80837     -827.09     315.758    -511.331    8.87068e-14   -1.78885e-14   -1.78885e-14
   15400        30.8     100.262     -1.3864    -827.722     317.044    -510.678    1.02363e-13   -1.55431e-14   -1.55431e-14
   15500          31     99.8245    -3.74984    -833.747      315.66    -518.087    7.30249e-14   -1.95399e-14   -1.95399e-14
   15600        31.2     99.9384     5.88259    -822.287      316.02    -506.267    9.09273e-14   -4.15223e-14   -4.15223e-14
   15700        31.4      100.07    -5.20966    -836.276     316.437    -519.839    9.00391e-14   -3.57492e-14   -3.57492e-14
   15800        31.6     100.111     3.85776    -821.451     316.566    -504.885    6.70575e-14   -3.45834e-14   -3.45834e-14
   15900        31.8     99.9875     5.68065    -820.004     316.176    -503.828    9.59233e-14    -4.2806e-14    -4.2806e-14
   16000          32     100.062     4.64395    -828.958      316.41    -512.548    9.50351e-14   -5.85088e-14   -5.85088e-14
   16100        32.2         100    -5.16656    -843.035     316.216    -526.819    7.88258e-14   -4.57412e-14   -4.57412e-14
   16200        32.4     99.7834    -8.57272    -851.469      315.53    -535.939    6.62803e-14   -3.65541e-14   -3.65541e-14
   16300        32.6     100.095     10.1889    -820.417     316.516    -503.902    7.99361e-14    -4.7462e-14    -4.7462e-14
   16400        32.8     100.161     13.6331     -811.47     316.723    -494.747       6.95e-14   -2.88155e-14   -2.88155e-14
   16500          33     100.004      10.434    -818.376     316.228    -502.148    5.37348e-14   -6.82787e-15   -6.82787e-15
   16600        33.2     99.7313     7.63766     -823.93     315.365    -508.564    6.37268e-14    7.54952e-15    7.54952e-15
   16700        33.4     99.9679    -10.3374    -839.499     316.114    -523.385    5.83977e-14    6.00908e-15    6.00908e-15
   16800        33.6     100.096    -13.4118    -833.054      316.52    -516.534    7.07212e-14    1.16573e-14    1.16573e-14
   16900        33.8     99.9399     10.0675     -805.26     316.025    -489.236    7.05547e-14    -1.4877e-14    -1.4877e-14
   17000          34     99.8404    -1.36307    -817.006      315.71    -501.295    6.05072e-14   -1.37668e-14   -1.37668e-14
   17100        34.2      100.03    -11.7139    -828.457      316.31    -512.147    6.76126e-14   -1.23998e-14   -1.23998e-14
   17200        34.4     99.9542    -3.79086    -831.496      316.07    -515.426     1.0017e-13    2.22045e-16    2.22045e-16
   17300        34.6     99.8677   -0.220806    -836.997     315.797      -521.2    9.10383e-14    6.66134e-15    6.66134e-15
   17400        34.8     99.9804    -13.2535    -861.486     316.153    -545.333    9.84213e-14    6.66134e-15    6.66134e-15
   17500          35     99.9535    -1.31839    -847.586     316.068    -531.518    1.06082e-13    9.54792e-15    9.54792e-15
   17600        35.2     99.9561    0.598068    -841.359     316.076    -525.283    1.12466e-13    1.28786e-14    1.28786e-14
   17700        35.4     99.8675    -5.95677    -862.631     315.796    -546.835    9.80882e-14   -5.10703e-15   -5.10703e-15
   17800        35.6     99.8871     11.5077    -825.232     315.858    -509.374    9.79217e-14   -2.02616e-14   -2.02616e-14
   17900        35.8     100.009    -4.35719    -840.691     316.245    -524.446    1.02363e-13   -1.92624e-14   -1.92624e-14
   18000          36      99.952     11.8445    -814.622     316.063    -498.559    1.03223e-13   -1.37668e-14   -1.37668e-14
   18100        36.2     100.041    -3.62689    -828.149     316.345    -511.804    9.62251e-14   -3.33067e-16   -3.33067e-16
   18200        36.4     99.9346    -11.0101    -836.893     316.008    -520.885    7.25947e-14    2.77556e-16    2.77556e-16
   18300        36.6     99.9871     5.82643    -811.244     316.174     -495.07    1.01252e-13    2.39808e-14    2.39808e-14
   18400        36.8     99.9295     7.96499    -810.737     315.992    -494.745    1.14631e-13    3.24185e-14    3.24185e-14
   18500          37      100.12     -4.3273    -831.978     316.596    -515.382    1.17129e-13    3.31957e-14    3.31957e-14
   18600        37.2     99.7427     6.16113    -820.677     315.402    -505.276    9.45355e-14    3.70814e-14    3.70814e-14
   18700        37.4     99.7486     -5.7042    -833.879      315.42    -518.459    9.26481e-14    3.64153e-14    3.64153e-14
   18800        37.6     100.003    -6.73994    -834.256     316.224    -518.032    7.72715e-14    1.08802e-14    1.08802e-14
   18900        37.8     100.113     5.79084    -828.279     316.572    -511.706    8.50431e-14   -3.88578e-15   -3.88578e-15
   19000          38     100.157   -0.277639    -830.724     316.712    -514.012     9.9587e-14   -3.19189e-16   -3.19189e-16
   19100        38.2     99.9914     4.49093    -836.662     316.188    -520.474    1.09135e-13   -2.44249e-15   -2.44249e-15
   19200        38.4     99.8973     5.40824     -834.94      315.89     -519.05    1.19793e-13   -7.21645e-15   -7.21645e-15
   19300        38.6     99.9263     9.12155    -822.143     315.982    -506.161    1.18128e-13   -2.90878e-14   -2.90878e-14
   19400        38.8      99.984     9.60769    -816.469     316.164    -500.304    1.24095e-13   -3.42244e-14   -3.42244e-14
   19500          39     100.047    -2.18915    -831.194     316.362    -514.832    1.33227e-13   -2.47372e-14   -2.47372e-14
   19600        39.2     100.243     -11.215    -836.617     316.984    -519.633    1.41553e-13   -4.20219e-14   -4.20219e-14
   19700        39.4     99.9479    -3.04768    -827.408      316.05    -511.358    1.40776e-13   -5.42344e-14   -5.42344e-14
   19800        39.6     99.9736    -14.6181    -838.135     316.132    -522.003    1.21486e-13   -3.54161e-14   -3.54161e-14
   19900        39.8     99.9427    -4.26163     -832.57     316.034    -516.536    1.27301e-13   -3.77753e-14   -3.77753e-14
   20000          40      100.08     5.79933    -825.045     316.468    -508.577    1.37564e-13   -4.19664e-14   -4.19664e-14
   20100        40.2     100.032     1.95838    -836.233     316.317    -519.916    1.34448e-13   -2.08722e-14   -2.08722e-14
   20200        40.4     100.042   -0.568059    -838.031     316.347    -521.685    1.55209e-13   -1.16573e-14   -1.16573e-14
   20300        40.6     100.119     -1.8417    -844.591     316.591    -528.001    1.53988e-13   -9.04138e-15   -9.04138e-15
   20400        40.8     99.8823     4.29514    -834.365     315.843    -518.523    1.66533e-13   -6.21725e-15   -6.21725e-15
   20500          41     99.9648     4.93118    -836.748     316.104    -520.644    1.63369e-13    1.39611e-14    1.39611e-14
   20600        41.2     100.209     9.78767    -826.839     316.875    -509.964     1.5099e-13    3.52496e-14    3.52496e-14
   20700        41.4     100.144    -3.33834    -839.947      316.67    -523.277    1.63203e-13    2.94209e-14    2.94209e-14
   20800        41.6     100.102    -5.40853    -843.843     316.539    -527.304    1.32672e-13    4.08562e-14    4.08562e-14
   20900        41.8     99.8308     3.14056    -838.696      315.68    -523.016    1.20903e-13    3.27516e-14    3.27516e-14
   21000          42     100.031    -1.77709    -838.219     316.313    -521.906    1.04805e-13    3.12528e-14    3.12528e-14
   21100        42.2     100.007     3.32985    -828.803     316.236    -512.567      1.113e-13     4.4964e-14     4.4964e-14
   21200        42.4      99.854     4.70507    -821.565     315.753    -505.812     1.1452e-13    4.94604e-14    4.94604e-14
   21300        42.6     100.037     1.20554    -828.071     316.333    -511.738    1.06248e-13    3.79696e-14    3.79696e-14
   21400        42.8     99.9538     -2.5132    -827.621     316.069    -511.552    5.58442e-14    4.34097e-14    4.34097e-14
   21500          43     99.8335    0.516161     -829.25     315.688    -513.561    5.24025e-14    3.27238e-14    3.27238e-14
   21600        43.2     99.9378    -12.9522    -838.542     316.018    -522.523    5.62883e-14    3.29736e-14    3.29736e-14
   21700        43.4     99.9212     3.84332    -825.811     315.966    -509.845    5.58442e-14    5.89528e-14    5.89528e-14
   21800        43.6     100.042     5.16608     -833.97     316.347    -517.623    6.08402e-14    6.35048e-14    6.35048e-14
   21900        43.8     100.124     5.80403    -834.392     316.606    -517.786    5.73985e-14      7.086e-14      7.086e-14
   22000          44     100.156    -1.14049     -835.88     316.709    -519.171    5.52891e-14    4.14668e-14    4.14668e-14
   22100        44.2     100.016   -0.997627    -838.705     316.264    -522.441      8.471e-14    4.70735e-14    4.70735e-14
   22200        44.4     100.158      1.7908    -829.986     316.714    -513.272    6.25056e-14     5.4512e-14     5.4512e-14
   22300        44.6     100.081    -9.63974    -841.997     316.471    -525.527    7.32747e-14    5.91749e-14    5.91749e-14
   22400        44.8     99.8083    -6.65207    -838.682     315.609    -523.073    7.88813e-14    6.27276e-14    6.27276e-14
   22500          45      99.952   -0.144366    -827.132     316.063    -511.069     9.2204e-14    5.11258e-14    5.11258e-14
   22600        45.2     100.137    -9.48257    -834.393      316.65    -517.743    8.63198e-14    4.32987e-14    4.32987e-14
   22700        45.4     100.055    -6.53416    -827.707     316.388     -511.32    8.85403e-14    5.01821e-14    5.01821e-14
   22800        45.6     100.004     1.40176    -821.847     316.228    -505.619     1.0153e-13     4.4631e-14     4.4631e-14
   22900        45.8     99.8994    -5.39023    -828.845     315.897    -512.948    9.01501e-14     3.4861e-14     3.4861e-14
   23000          46     99.9513     1.73225    -815.711     316.061     -499.65    5.65381e-14    4.57412e-14    4.57412e-14
   23100        46.2     99.9548    -4.41315    -829.453     316.072     -513.38    5.88418e-14    4.32709e-14    4.32709e-14
   23200        46.4     100.053    0.373787    -823.039     316.383    -506.656    5.00294e-14    3.01981e-14    3.01981e-14
   23300        46.6      100.15     -6.1385    -833.201      316.69    -516.512    5.21805e-14    4.39648e-14    4.39648e-14
   23400        46.8     100.073    -10.4608    -840.636     316.446    -524.191    5.18179e-14     3.9746e-14     3.9746e-14
   23500          47     100.038    -1.83806    -829.457     316.336    -513.122    6.30607e-14    5.31797e-14    5.31797e-14
   23600        47.2     100.018     2.91016    -829.412     316.271    -513.141     6.2117e-14    7.01661e-14    7.01661e-14
   23700        47.4     100.099    -10.8888    -845.031     316.527    -528.504    6.06182e-14    6.89448e-14    6.89448e-14