Time step        time           T           P          PE          KE          TE             Px             Py             Pz
       0              0              0        474.319        474.319   -6.66134e-16    8.18789e-15    8.18789e-15
       1          0.002       -1131.14         473.78       -657.361    5.55112e-15    1.19349e-15    1.19349e-15
       2          0.004       -1130.26        472.901        -657.36    1.31006e-14    6.71685e-15    6.71685e-15
       3          0.006       -1129.05        471.693       -657.359    5.77316e-15    8.04912e-15    8.04912e-15
       4          0.008       -1127.53        470.172       -657.358    1.68754e-14    8.18789e-15    8.18789e-15
       5           0.01       -1125.71        468.352       -657.357    1.46549e-14    4.55191e-15    4.55191e-15
       6          0.012       -1123.61        466.252       -657.356   -1.13243e-14    1.03528e-14    1.03528e-14
       7          0.014       -1121.24        463.889       -657.355     3.9968e-15    7.93809e-15    7.93809e-15
       8          0.016       -1118.64        461.284       -657.354    1.86517e-14    7.96585e-15    7.96585e-15
       9          0.018       -1115.81        458.459       -657.353    3.19744e-14    8.82627e-15    8.82627e-15
      10           0.02       -1112.79        455.435       -657.352    2.39808e-14    1.65978e-14    1.65978e-14
      11          0.022       -1109.59        452.236       -657.351    7.77156e-15    9.88098e-15    9.88098e-15
      12          0.024       -1106.24        448.885        -657.35    1.42109e-14     8.9373e-15     8.9373e-15
      13          0.026       -1102.76        445.407       -657.349    4.44089e-15    1.41553e-14    1.41553e-14
      14          0.028       -1099.17        441.826       -657.348    3.10862e-15    8.10463e-15    8.10463e-15
      15           0.03       -1095.51        438.166       -657.347    1.22125e-14    1.58207e-14    1.58207e-14
      16          0.032        -1091.8        434.451       -657.346    1.68754e-14    9.10383e-15    9.10383e-15
      17          0.034       -1088.05        430.706       -657.344    3.66374e-14    4.60743e-15    4.60743e-15
      18          0.036        -1084.3        426.956       -657.343    6.43929e-15    7.66054e-15    7.66054e-15
      19          0.038       -1080.57        423.224       -657.342    1.93179e-14    6.66134e-15    6.66134e-15
      20           0.04       -1076.88        419.537       -657.341   -5.32907e-15    2.55351e-15    2.55351e-15
      21          0.042       -1073.26        415.919        -657.34   -8.21565e-15    5.93969e-15    5.93969e-15
      22          0.044       -1069.73        412.394       -657.338    1.15463e-14    1.20459e-14    1.20459e-14
      23          0.046       -1066.32        408.983       -657.337   -4.44089e-16     1.2379e-14     1.2379e-14
      24          0.048       -1063.05        405.709       -657.337    4.21885e-15    8.54872e-15    8.54872e-15
      25           0.05       -1059.92        402.589       -657.336    1.59872e-14    1.17684e-14    1.17684e-14
      26          0.052       -1056.98        399.641       -657.335    2.59792e-14    7.99361e-15    7.99361e-15
      27          0.054       -1054.21        396.877       -657.335    1.75415e-14    3.83027e-15    3.83027e-15
      28          0.056       -1051.64        394.309       -657.334   -1.95399e-14    4.60743e-15    4.60743e-15
      29          0.058       -1049.28        391.946       -657.334    1.39888e-14    6.27276e-15    6.27276e-15
      30           0.06       -1047.13        389.793       -657.334    1.55431e-15    3.44169e-15    3.44169e-15
      31          0.062       -1045.19        387.856       -657.334    1.46549e-14   -4.32987e-15   -4.32987e-15
      32          0.064       -1043.47        386.135       -657.334   -6.21725e-15    2.55351e-15    2.55351e-15
      33          0.066       -1041.97        384.631       -657.334    4.88498e-15   -1.88738e-15   -1.88738e-15
      34          0.068       -1040.68        383.342       -657.335   -2.66454e-15    6.99441e-15    6.99441e-15
      35           0.07        -1039.6        382.264       -657.335    9.10383e-15    1.44329e-15    1.44329e-15
      36          0.072       -1038.73         381.39       -657.336    1.77636e-14   -3.33067e-16   -3.33067e-16
      37          0.074       -1038.05         380.71       -657.336     2.5091e-14   -5.21805e-15   -5.21805e-15
      38          0.076       -1037.55        380.211       -657.337    5.55112e-15    3.33067e-16    3.33067e-16
      39          0.078       -1037.22        379.879       -657.339    1.80966e-14    6.88338e-15    6.88338e-15
      40           0.08       -1037.03        379.695        -657.34    1.70974e-14   -1.22125e-15   -1.22125e-15
      41          0.082       -1036.98        379.638       -657.341    1.11022e-16   -4.66294e-15   -4.66294e-15
      42          0.084       -1037.03        379.684       -657.343    1.54321e-14   -3.88578e-15   -3.88578e-15
      43          0.086       -1037.16        379.811       -657.344     1.9984e-15   -9.65894e-15   -9.65894e-15
      44          0.088       -1037.34        379.993       -657.346    3.77476e-15   -1.15463e-14   -1.15463e-14
      45           0.09       -1037.55        380.207       -657.347   -5.55112e-15   -7.99361e-15   -7.99361e-15
      46          0.092       -1037.78         380.43       -657.348    8.77076e-15   -8.21565e-15   -8.21565e-15
      47          0.094       -1037.99        380.643       -657.349   -1.24345e-14   -4.77396e-15   -4.77396e-15
      48          0.096       -1038.18         380.83        -657.35   -1.40998e-14   -1.44329e-15   -1.44329e-15
      49          0.098       -1038.33        380.978        -657.35   -7.43849e-15    2.22045e-16    2.22045e-16
      50            0.1       -1038.43         381.08        -657.35    5.71765e-15    4.21885e-15    4.21885e-15
      51          0.102       -1038.48        381.132        -657.35    1.09357e-14   -5.88418e-15   -5.88418e-15
      52          0.104       -1038.49        381.136       -657.349    1.56541e-14    4.55191e-15    4.55191e-15
      53          0.106       -1038.45        381.097       -657.349    8.99281e-15    2.55351e-15    2.55351e-15
      54          0.108       -1038.37        381.022       -657.348    4.82947e-15    -1.0103e-14    -1.0103e-14
      55           0.11       -1038.27        380.922       -657.347    1.06026e-14    7.54952e-15    7.54952e-15
      56          0.112       -1038.15        380.807       -657.346    1.30174e-14    8.21565e-15    8.21565e-15
      57          0.114       -1038.04        380.691       -657.345    3.10169e-15    -1.0103e-14    -1.0103e-14
      58          0.116       -1037.93        380.583       -657.344    1.60982e-15   -6.77236e-15   -6.77236e-15
      59          0.118       -1037.84        380.494       -657.344    1.13659e-14   -5.10703e-15   -5.10703e-15
      60           0.12       -1037.78        380.435       -657.343    2.19269e-15   -6.77236e-15   -6.77236e-15
      61          0.122       -1037.75        380.412       -657.343    1.36002e-15   -4.66294e-15   -4.66294e-15
      62          0.124       -1037.77         380.43       -657.342   -9.15934e-15    1.13243e-14    1.13243e-14
      63          0.126       -1037.83        380.491       -657.342   -2.77556e-15   -4.10783e-15   -4.10783e-15
      64          0.128       -1037.94        380.593       -657.343   -3.38618e-15   -6.88338e-15   -6.88338e-15
      65           0.13       -1038.07        380.732       -657.343    5.55112e-15   -1.74305e-14   -1.74305e-14
      66          0.132       -1038.24        380.898       -657.344   -1.66533e-15   -1.19904e-14   -1.19904e-14
      67          0.134       -1038.42         381.08       -657.344    7.10543e-15   -2.09832e-14   -2.09832e-14
      68          0.136       -1038.61        381.261       -657.346    3.55271e-15   -7.88258e-15   -7.88258e-15
      69          0.138       -1038.77        381.425       -657.347    5.32907e-15   -1.03251e-14   -1.03251e-14
      70           0.14        -1038.9        381.551       -657.348   -1.11022e-16   -1.66533e-14   -1.66533e-14
      71          0.142       -1038.97         381.62       -657.349    5.88418e-15   -1.70974e-14   -1.70974e-14
      72          0.144       -1038.96        381.612        -657.35     2.9976e-15   -1.52101e-14   -1.52101e-14
      73          0.146       -1038.86         381.51       -657.351    3.33067e-15   -1.38778e-14   -1.38778e-14
      74          0.148       -1038.65        381.298       -657.352    5.77316e-15   -2.24265e-14   -2.24265e-14
      75           0.15       -1038.32        380.964       -657.352    8.99281e-15   -2.60902e-14   -2.60902e-14
      76          0.152       -1037.85        380.497       -657.353    4.66294e-15   -8.99281e-15   -8.99281e-15
      77          0.154       -1037.24        379.891       -657.353    7.66054e-15   -1.52101e-14   -1.52101e-14
      78          0.156        -1036.5        379.145       -657.353    6.43929e-15   -9.21485e-15   -9.21485e-15
      79          0.158       -1035.61        378.258       -657.353    -5.9952e-15    -1.9984e-14    -1.9984e-14
      80           0.16       -1034.59        377.237       -657.352   -8.88178e-16   -1.40998e-14   -1.40998e-14
      81          0.162       -1033.44         376.09       -657.351   -1.08802e-14   -1.89848e-14   -1.89848e-14
      82          0.164       -1032.18         374.83        -657.35              0   -7.32747e-15   -7.32747e-15
      83          0.166       -1030.82        373.472       -657.349    3.10862e-15    -9.4369e-15    -9.4369e-15
      84          0.168       -1029.39        372.038       -657.348    4.44089e-15   -1.65423e-14   -1.65423e-14
      85           0.17        -1027.9        370.551       -657.346    1.11022e-14   -2.07612e-14   -2.07612e-14
      86          0.172       -1026.38        369.039       -657.344    4.44089e-16   -1.12133e-14   -1.12133e-14
      87          0.174       -1024.87        367.531       -657.342    1.77636e-15   -1.17684e-14   -1.17684e-14
      88          0.176        -1023.4         366.06        -657.34    2.44249e-15   -8.43769e-15   -8.43769e-15
      89          0.178          -1022        364.659       -657.338   -3.33067e-15   -1.45439e-14   -1.45439e-14
      90           0.18        -1020.7        363.363       -657.336   -4.44089e-16   -6.55032e-15   -6.55032e-15
      91          0.182       -1019.54        362.204       -657.334    2.88658e-15   -1.37668e-14   -1.37668e-14
      92          0.184       -1018.55        361.214       -657.332    1.55431e-15   -1.24345e-14   -1.24345e-14
      93          0.186       -1017.75        360.421        -657.33    1.77636e-15   -1.34337e-14   -1.34337e-14
      94          0.188       -1017.18        359.846       -657.329    5.10703e-15   -8.99281e-15   -8.99281e-15
      95           0.19       -1016.84        359.507       -657.328     5.9952e-15   -8.99281e-15   -8.99281e-15
      96          0.192       -1016.74        359.411       -657.328    5.10703e-15    -1.9984e-14    -1.9984e-14
      97          0.194       -1016.89        359.561       -657.329    4.21885e-15   -1.88738e-14   -1.88738e-14
      98          0.196       -1017.28        359.946       -657.329    8.65974e-15   -1.96509e-14   -1.96509e-14
      99          0.198       -1017.88        360.551       -657.331    7.99361e-15   -1.66533e-14   -1.66533e-14
     100            0.2       -1018.68        361.348       -657.333    8.43769e-15   -1.70974e-14   -1.70974e-14
     101          0.202       -1019.64        362.305       -657.335    4.21885e-15   -1.86517e-14   -1.86517e-14
     102          0.204       -1020.72        363.383       -657.338    6.21725e-15   -1.73195e-14   -1.73195e-14
     103          0.206       -1021.88        364.539        -657.34    1.33227e-15   -1.95399e-14   -1.95399e-14
     104          0.208       -1023.07        365.729       -657.343    1.33227e-15    -2.9754e-14    -2.9754e-14
     105           0.21       -1024.25        366.908       -657.345    4.66294e-15   -2.76446e-14   -2.76446e-14
     106          0.212       -1025.38        368.036       -657.347    1.02141e-14   -2.38698e-14   -2.38698e-14
     107          0.214       -1026.42        369.075       -657.349              0   -2.95319e-14   -2.95319e-14
     108          0.216       -1027.34        369.992        -657.35    2.22045e-16   -1.84297e-14   -1.84297e-14
     109          0.218       -1028.11        370.763       -657.351    2.22045e-16   -1.79856e-14   -1.79856e-14
     110           0.22       -1028.72        371.368       -657.352    1.42109e-14   -2.27596e-14   -2.27596e-14
     111          0.222       -1029.15        371.795       -657.352    8.65974e-15   -1.68754e-14   -1.68754e-14
     112          0.224       -1029.39        372.038       -657.351    5.10703e-15   -2.44249e-14   -2.44249e-14
     113          0.226       -1029.45        372.098       -657.351    4.21885e-15   -3.09752e-14   -3.09752e-14
     114          0.228       -1029.33         371.98        -657.35    8.65974e-15   -2.64233e-14   -2.64233e-14
     115           0.23       -1029.04        371.692       -657.349    2.66454e-15   -2.77556e-14   -2.77556e-14
     116          0.232        -1028.6        371.247       -657.348    2.22045e-15   -2.25375e-14   -2.25375e-14
     117          0.234       -1028.01         370.66       -657.346    1.19904e-14   -2.76446e-14   -2.76446e-14
     118          0.236       -1027.29        369.947       -657.345    5.32907e-15   -2.79776e-14   -2.79776e-14
     119          0.238       -1026.47        369.123       -657.344    1.13243e-14   -2.45359e-14   -2.45359e-14
     120           0.24       -1025.55        368.204       -657.343    3.10862e-15   -2.90878e-14   -2.90878e-14
     121          0.242       -1024.55        367.206       -657.342    1.08802e-14   -3.15303e-14   -3.15303e-14
     122          0.244       -1023.48        366.143       -657.341    8.21565e-15    -2.9643e-14    -2.9643e-14
     123          0.246       -1022.37        365.028        -657.34    7.10543e-15   -4.05231e-14   -4.05231e-14
     124          0.248       -1021.21        363.875       -657.339    9.10383e-15   -2.10942e-14   -2.10942e-14
     125           0.25       -1020.03        362.695       -657.339    3.77476e-15   -3.91909e-14   -3.91909e-14
     126          0.252       -1018.84        361.499       -657.338    5.77316e-15   -3.03091e-14   -3.03091e-14
     127          0.254       -1017.64          360.3       -657.337    5.32907e-15    -3.0087e-14    -3.0087e-14
     128          0.256       -1016.44        359.108       -657.336    7.10543e-15   -2.62013e-14   -2.62013e-14
     129          0.258       -1015.27        357.936       -657.336    2.66454e-15   -2.77556e-14   -2.77556e-14
     130           0.26       -1014.13        356.797       -657.335    2.66454e-15   -2.34257e-14   -2.34257e-14
     131          0.262       -1013.04        355.704       -657.334    6.66134e-15   -3.13083e-14   -3.13083e-14
     132          0.264          -1012        354.669       -657.333    1.08802e-14   -3.71925e-14   -3.71925e-14
     133          0.266       -1011.03        353.702       -657.333    6.88338e-15   -3.55271e-14   -3.55271e-14
     134          0.268       -1010.14        352.812       -657.332    3.33067e-15   -3.17524e-14   -3.17524e-14
     135           0.27       -1009.34        352.004       -657.332    3.55271e-15   -3.08642e-14   -3.08642e-14
     136          0.272       -1008.61         351.28       -657.333     3.9968e-15   -3.04201e-14   -3.04201e-14
     137          0.274       -1007.97        350.637       -657.333    3.10862e-15   -3.33067e-14   -3.33067e-14
     138          0.276        -1007.4        350.069       -657.334   -8.88178e-16   -3.93019e-14   -3.93019e-14
     139          0.278        -1006.9        349.565       -657.334    6.66134e-15   -4.06342e-14   -4.06342e-14
     140           0.28       -1006.45        349.116       -657.335    4.44089e-16   -4.13003e-14   -4.13003e-14
     141          0.282       -1006.05         348.71       -657.335    1.55431e-15   -3.06422e-14   -3.06422e-14
     142          0.284       -1005.67        348.337       -657.336   -1.33227e-15   -4.01901e-14   -4.01901e-14
     143          0.286       -1005.33        347.989       -657.336    4.21885e-15   -4.15223e-14   -4.15223e-14
     144          0.288          -1005        347.662       -657.336   -4.44089e-16   -3.13083e-14   -3.13083e-14
     145           0.29       -1004.69        347.353       -657.336    3.33067e-15   -4.24105e-14   -4.24105e-14
     146          0.292        -1004.4        347.064       -657.335     1.9984e-15   -4.75175e-14   -4.75175e-14
     147          0.294       -1004.13        346.799       -657.335    1.11022e-15    -3.9746e-14    -3.9746e-14
     148          0.296        -1003.9        346.563       -657.334   -3.55271e-15   -4.30767e-14   -4.30767e-14
     149          0.298        -1003.7        346.362       -657.334              0   -3.53051e-14   -3.53051e-14
     150            0.3       -1003.54        346.202       -657.333    3.55271e-15   -4.41869e-14   -4.41869e-14
     151          0.302       -1003.42        346.085       -657.333   -4.21885e-15   -3.81917e-14   -3.81917e-14
     152          0.304       -1003.35        346.013       -657.333   -1.35447e-14   -4.41869e-14   -4.41869e-14
     153          0.306       -1003.32        345.984       -657.333   -9.76996e-15    -4.4853e-14    -4.4853e-14
     154          0.308       -1003.32        345.991       -657.333   -2.88658e-15   -3.55271e-14   -3.55271e-14
     155           0.31       -1003.36        346.026       -657.334   -9.54792e-15   -3.30846e-14   -3.30846e-14
     156          0.312       -1003.41        346.078       -657.335   -1.44329e-14   -3.90799e-14   -3.90799e-14
     157          0.314       -1003.47        346.132       -657.336   -1.90958e-14   -4.19664e-14   -4.19664e-14
     158          0.316       -1003.51        346.175       -657.336   -1.73195e-14   -3.21965e-14   -3.21965e-14
     159          0.318       -1003.53        346.193       -657.337   -1.37668e-14   -4.30767e-14   -4.30767e-14
     160           0.32       -1003.51        346.171       -657.338   -1.62093e-14   -3.17524e-14   -3.17524e-14
     161          0.322       -1003.44        346.098       -657.338   -1.77636e-14   -3.55271e-14   -3.55271e-14
     162          0.324        -1003.3        345.965       -657.338   -1.24345e-14   -4.01901e-14   -4.01901e-14
     163          0.326        -1003.1        345.765       -657.338   -1.93179e-14   -3.55271e-14   -3.55271e-14
     164          0.328       -1002.83        345.494       -657.338   -2.13163e-14   -3.41949e-14   -3.41949e-14
     165           0.33       -1002.49        345.151       -657.338   -1.19904e-14    -2.9976e-14    -2.9976e-14
     166          0.332       -1002.07        344.736       -657.338   -1.70974e-14   -3.08642e-14   -3.08642e-14
     167          0.334       -1001.59        344.254       -657.337   -1.86517e-14   -3.17524e-14   -3.17524e-14
     168          0.336       -1001.05         343.71       -657.337   -1.70974e-14   -3.17524e-14   -3.17524e-14
     169          0.338       -1000.44        343.108       -657.336    -1.9762e-14   -2.95319e-14   -2.95319e-14
     170           0.34       -999.793        342.457       -657.336   -1.62093e-14   -3.15303e-14   -3.15303e-14
     171          0.342       -999.098        341.762       -657.335   -1.84297e-14   -2.39808e-14   -2.39808e-14
     172          0.344       -998.366        341.031       -657.335   -1.64313e-14   -3.01981e-14   -3.01981e-14
     173          0.346       -997.604         340.27       -657.334   -7.77156e-15   -2.90878e-14   -2.90878e-14
     174          0.348       -996.817        339.483       -657.334   -1.53211e-14   -3.24185e-14   -3.24185e-14
     175           0.35       -996.011        338.677       -657.334   -1.42109e-14   -3.24185e-14   -3.24185e-14
     176          0.352       -995.189        337.856       -657.333   -1.44329e-14    -2.9976e-14    -2.9976e-14
     177          0.354       -994.357        337.023       -657.333   -1.75415e-14    -2.9976e-14    -2.9976e-14
     178          0.356       -993.518        336.185       -657.333   -1.42109e-14   -3.15303e-14   -3.15303e-14
     179          0.358       -992.678        335.345       -657.332   -1.86517e-14   -2.93099e-14   -2.93099e-14
     180           0.36       -991.842         334.51       -657.332   -1.77636e-14   -2.88658e-14   -2.88658e-14
     181          0.362       -991.016        333.684       -657.332   -1.57652e-14   -2.84217e-14   -2.84217e-14
     182          0.364       -990.207        332.876       -657.331   -1.59872e-14   -3.15303e-14   -3.15303e-14
     183          0.366       -989.424        332.094        -657.33   -1.70974e-14    -2.9976e-14    -2.9976e-14
     184          0.368       -988.676        331.346        -657.33   -1.53211e-14   -2.84217e-14   -2.84217e-14
     185           0.37       -987.972        330.642       -657.329   -1.15463e-14   -3.17524e-14   -3.17524e-14
     186          0.372       -987.321        329.993       -657.328   -2.53131e-14   -2.68674e-14   -2.68674e-14
     187          0.374       -986.734        329.407       -657.328   -2.06501e-14    -2.9754e-14    -2.9754e-14
     188          0.376        -986.22        328.893       -657.327   -2.30926e-14   -3.28626e-14   -3.28626e-14
     189          0.378       -985.784        328.457       -657.327   -2.02061e-14   -2.93099e-14   -2.93099e-14
     190           0.38       -985.432        328.105       -657.327   -2.44249e-14    -2.9754e-14    -2.9754e-14
     191          0.382       -985.164        327.837       -657.327   -2.17604e-14   -2.86438e-14   -2.86438e-14
     192          0.384       -984.978        327.651       -657.327   -2.55351e-14   -3.64153e-14   -3.64153e-14
     193          0.386        -984.87        327.543       -657.327   -1.90958e-14   -3.10862e-14   -3.10862e-14
     194          0.388        -984.83        327.502       -657.328   -2.44249e-14   -3.04201e-14   -3.04201e-14
     195           0.39       -984.847        327.518       -657.329   -2.68674e-14   -3.21965e-14   -3.21965e-14
     196          0.392       -984.909        327.579        -657.33    -2.4869e-14   -3.15303e-14   -3.15303e-14
     197          0.394           -985         327.67        -657.33   -2.33147e-14   -3.24185e-14   -3.24185e-14
     198          0.396       -985.107        327.776       -657.331    -2.4869e-14   -3.30846e-14   -3.30846e-14
     199          0.398       -985.215        327.884       -657.332    -1.9984e-14   -3.24185e-14   -3.24185e-14
     200            0.4       -985.313        327.981       -657.332   -2.02061e-14   -2.73115e-14   -2.73115e-14
     201          0.402       -985.388        328.055       -657.333   -2.02061e-14   -2.88658e-14   -2.88658e-14
     202          0.404        -985.43        328.097       -657.333   -1.55431e-14   -3.10862e-14   -3.10862e-14
     203          0.406       -985.432        328.098       -657.333   -1.68754e-14   -3.26406e-14   -3.26406e-14
     204          0.408       -985.386        328.052       -657.334   -2.24265e-14    -2.9754e-14    -2.9754e-14
     205           0.41       -985.287        327.953       -657.334   -2.26485e-14   -3.26406e-14   -3.26406e-14
     206          0.412        -985.13        327.796       -657.334   -1.70974e-14   -2.73115e-14   -2.73115e-14
     207          0.414       -984.913        327.579       -657.334   -1.75415e-14   -2.81997e-14   -2.81997e-14
     208          0.416       -984.632        327.298       -657.334   -2.04281e-14   -2.90878e-14   -2.90878e-14
     209          0.418       -984.284         326.95       -657.334   -2.39808e-14    -1.9762e-14    -1.9762e-14
     210           0.42       -983.869        326.535       -657.334   -2.13163e-14   -2.64233e-14   -2.64233e-14
     211          0.422       -983.385        326.051       -657.334   -1.53211e-14   -2.35367e-14   -2.35367e-14
     212          0.424        -982.83        325.496       -657.334   -2.15383e-14   -2.13163e-14   -2.13163e-14
     213          0.426       -982.205        324.871       -657.334   -1.77636e-14   -2.59792e-14   -2.59792e-14
     214          0.428       -981.509        324.175       -657.334   -1.68754e-14   -2.17604e-14   -2.17604e-14
     215           0.43       -980.744         323.41       -657.334   -2.17604e-14   -2.66454e-14   -2.66454e-14
     216          0.432       -979.911        322.578       -657.333    -1.5099e-14   -2.04281e-14   -2.04281e-14
     217          0.434       -979.015        321.681       -657.333   -1.70974e-14   -2.33147e-14   -2.33147e-14
     218          0.436       -978.059        320.726       -657.333   -1.35447e-14   -2.26485e-14   -2.26485e-14
     219          0.438        -977.05        319.718       -657.332   -1.46549e-14   -2.39808e-14   -2.39808e-14
     220           0.44       -975.996        318.665       -657.332   -1.11022e-14    -1.9762e-14    -1.9762e-14
     221          0.442       -974.906        317.575       -657.331   -1.64313e-14   -2.66454e-14   -2.66454e-14
     222          0.444       -973.789        316.459        -657.33   -1.46549e-14   -2.37588e-14   -2.37588e-14
     223          0.446       -972.658        315.329        -657.33   -1.55431e-14   -1.93179e-14   -1.93179e-14
     224          0.448       -971.525        314.196       -657.329   -1.33227e-14   -1.90958e-14   -1.90958e-14
     225           0.45       -970.402        313.074       -657.328   -2.02061e-14   -1.77636e-14   -1.77636e-14
     226          0.452       -969.302        311.975       -657.327   -1.53211e-14   -2.37588e-14   -2.37588e-14
     227          0.454       -968.237        310.911       -657.326   -1.38778e-14   -2.02061e-14   -2.02061e-14
     228          0.456       -967.218        309.892       -657.326   -1.17684e-14   -2.22045e-14   -2.22045e-14
     229          0.458       -966.255        308.929       -657.325   -7.77156e-15   -2.13163e-14   -2.13163e-14
     230           0.46       -965.353        308.028       -657.325   -1.32117e-14   -2.30926e-14   -2.30926e-14
     231          0.462       -964.519        307.194       -657.325    -1.4877e-14   -2.10942e-14   -2.10942e-14
     232          0.464       -963.754        306.429       -657.325   -1.28786e-14   -2.35367e-14   -2.35367e-14
     233          0.466       -963.058        305.732       -657.325   -1.08802e-14   -2.35367e-14   -2.35367e-14
     234          0.468       -962.426          305.1       -657.326   -1.29896e-14   -2.30926e-14   -2.30926e-14
     235           0.47       -961.854        304.528       -657.326   -1.12133e-14   -1.93179e-14   -1.93179e-14
     236          0.472       -961.333        304.006       -657.327   -6.21725e-15   -1.73195e-14   -1.73195e-14
     237          0.474       -960.855        303.527       -657.327   -1.29896e-14   -2.06501e-14   -2.06501e-14
     238          0.476       -960.409        303.081       -657.328   -1.70974e-14   -2.13163e-14   -2.13163e-14
     239          0.478       -959.987        302.658       -657.328   -1.39888e-14   -1.82077e-14   -1.82077e-14
     240           0.48       -959.578        302.249       -657.329   -1.92069e-14   -1.88738e-14   -1.88738e-14
     241          0.482       -959.174        301.845       -657.329   -1.21014e-14   -1.39888e-14   -1.39888e-14
     242          0.484       -958.769        301.439        -657.33   -8.21565e-15   -1.70974e-14   -1.70974e-14
     243          0.486       -958.356        301.026        -657.33   -1.17684e-14   -1.57652e-14   -1.57652e-14
     244          0.488       -957.931        300.601        -657.33   -4.10783e-15   -1.22125e-14   -1.22125e-14
     245           0.49       -957.492        300.161        -657.33   -1.24345e-14   -1.57652e-14   -1.57652e-14
     246          0.492       -957.035        299.705        -657.33   -4.66294e-15   -1.59872e-14   -1.59872e-14
     247          0.494        -956.56         299.23        -657.33   -1.11022e-14   -1.04361e-14   -1.04361e-14
     248          0.496       -956.067        298.737        -657.33   -1.32117e-14   -1.75415e-14   -1.75415e-14
     249          0.498       -955.555        298.225        -657.33   -8.43769e-15   -1.44329e-14   -1.44329e-14
     250            0.5       -955.024        297.694        -657.33   -1.89848e-14   -1.44329e-14   -1.44329e-14
     251          0.502       -954.474        297.144        -657.33   -8.77076e-15   -1.39888e-14   -1.39888e-14
     252          0.504       -953.904        296.574        -657.33    -9.4369e-15   -1.57652e-14   -1.57652e-14
     253          0.506       -953.314        295.984        -657.33   -5.44009e-15   -1.44329e-14   -1.44329e-14
     254          0.508       -952.704        295.374        -657.33   -6.32827e-15   -7.77156e-15   -7.77156e-15
     255           0.51       -952.073        294.743        -657.33   -1.06581e-14   -1.44329e-14   -1.44329e-14
     256          0.512       -951.421        294.091        -657.33   -9.60343e-15   -1.42109e-14   -1.42109e-14
     257          0.514        -950.75         293.42        -657.33   -1.27676e-14   -1.42109e-14   -1.42109e-14
     258          0.516        -950.06        292.731        -657.33   -9.32587e-15   -1.28786e-14   -1.28786e-14
     259          0.518       -949.354        292.024        -657.33   -1.03251e-14   -1.44329e-14   -1.44329e-14
     260           0.52       -948.634        291.304       -657.329   -3.38618e-15   -1.28786e-14   -1.28786e-14
     261          0.522       -947.902        290.573       -657.329   -1.06026e-14   -1.55431e-14   -1.55431e-14