       0           0         100     10.4219           0     316.215     316.215     1.5099e-14   -6.93889e-16   -6.93889e-16
     100         0.2     99.8879    -11.0856    -945.371      315.86     -629.51     1.9873e-14   -1.45439e-14   -1.45439e-14
     200         0.4     99.9988     2.57501    -906.924     316.211    -590.713     2.7145e-14   -2.46886e-14   -2.46886e-14
     300         0.6     99.9588    -4.12274    -918.342     316.085    -602.257    1.82077e-14   -3.17524e-14   -3.17524e-14
     400         0.8     99.9421     3.79364    -907.471     316.032    -591.439    1.34337e-14   -4.01901e-14   -4.01901e-14
     500           1     99.9767     1.57943    -921.584     316.141    -605.443    1.82077e-14   -4.26326e-14   -4.26326e-14
     600         1.2     99.9319    -4.15157    -932.518         316    -616.518    2.27596e-14   -1.88738e-14   -1.88738e-14
     700         1.4     100.032    -1.48471    -925.433     316.317    -609.116    2.47025e-14   -2.34257e-14   -2.34257e-14
     800         1.6     100.086     2.56708    -908.842     316.487    -592.355    8.43769e-15   -1.36835e-14   -1.36835e-14
     900         1.8     99.9534     4.18378    -911.392     316.068    -595.324    1.60982e-15   -1.11022e-14   -1.11022e-14
    1000           2     99.9546     2.04323    -907.107     316.071    -591.035    9.54792e-15   -2.58682e-14   -2.58682e-14
    1100         2.2     100.326    -2.03202    -908.825     317.244    -591.581    9.54792e-15   -2.88658e-15   -2.88658e-15
    1200         2.4     99.9006     12.7889    -889.489     315.901    -573.588    5.26662e-14   -3.04201e-14   -3.04201e-14
    1300         2.6     99.9539     -1.9297    -909.542     316.069    -593.473    6.02851e-14   -2.08722e-14   -2.08722e-14
    1400         2.8     99.9687 -0.00384074    -914.488     316.116    -598.372    5.88973e-14   -1.59317e-14   -1.59317e-14
    1500           3     100.208     2.21421     -910.32     316.872    -593.448    5.30687e-14   -1.17129e-14   -1.17129e-14
    1600         3.2     99.9916     13.7624    -902.036     316.188    -585.848     7.4496e-14   -2.89213e-14   -2.89213e-14
    1700         3.4     100.032     17.0506    -894.356     316.317    -578.039     6.4615e-14   -3.17524e-14   -3.17524e-14
    1800         3.6     99.8734     8.40759    -907.001     315.815    -591.186    5.72875e-14   -2.13163e-14   -2.13163e-14
    1900         3.8     99.9772     6.93592    -913.072     316.143    -596.929    5.18613e-14   -1.16018e-14   -1.16018e-14
    2000           4     100.134     1.33615    -920.365     316.638    -603.727    6.08402e-14   -4.04121e-14   -4.04121e-14
    2100         4.2     100.306     9.88507    -909.259     317.182    -592.077    6.11733e-14   -6.12843e-14   -6.12843e-14
    2200         4.4     99.9987    0.683001    -913.102     316.211    -596.891    7.68274e-14    -6.4615e-14    -6.4615e-14
    2300         4.6     100.131    -3.34205    -920.924      316.63    -604.294    7.71605e-14   -6.87228e-14   -6.87228e-14
    2400         4.8     99.9678    -6.27475    -914.869     316.113    -598.756     7.9714e-14   -5.14588e-14   -5.14588e-14
    2500           5     99.8562     12.9687    -890.611      315.76    -574.851    4.89608e-14   -7.41074e-14   -7.41074e-14
    2600         5.2     99.9559    -8.49757    -923.415     316.076     -607.34    4.92939e-14   -7.90479e-14   -7.90479e-14
    2700         5.4     100.087    -8.33544     -933.47     316.491     -616.98     4.4631e-14   -7.06657e-14   -7.06657e-14
    2800         5.6     99.8889    -3.16267    -928.566     315.864    -612.702    5.15421e-14    -6.4504e-14    -6.4504e-14
    2900         5.8     100.035      4.6368    -916.148     316.327    -599.821     4.4853e-14   -6.98885e-14   -6.98885e-14
    3000           6     100.022    -4.69153    -933.537     316.285    -617.252    2.58682e-14   -3.19189e-14   -3.19189e-14
    3100         6.2     100.123   -0.100553    -933.031     316.603    -616.428    2.35367e-14   -4.58522e-14   -4.58522e-14
    3200         6.4     99.9128     9.99051    -910.034     315.939    -594.095    1.73472e-14   -6.19504e-14   -6.19504e-14
    3300         6.6     100.149     13.6315    -897.166     316.687    -580.479    4.19664e-14   -5.17364e-14   -5.17364e-14
    3400         6.8     99.8707      7.8637    -904.915     315.806    -589.108    2.63123e-14   -3.73035e-14   -3.73035e-14
    3500           7     100.057   -0.575019    -912.857     316.396    -596.461    9.99201e-15   -3.38618e-14   -3.38618e-14
    3600         7.2     100.099       16.98    -904.623     316.528    -588.095    1.86517e-14    -3.9968e-14    -3.9968e-14
    3700         7.4     100.143     15.6697    -913.862     316.668    -597.193    5.88418e-15   -1.62648e-14   -1.62648e-14
    3800         7.6     99.9406     4.12511    -926.405     316.027    -610.378    5.32907e-15   -3.38063e-14   -3.38063e-14
    3900         7.8     99.9308   -0.213552    -919.679     315.996    -603.683   -1.60982e-14   -3.21965e-14   -3.21965e-14
    4000           8     100.202     5.88447    -913.659     316.852    -596.807   -1.71807e-14   -3.48332e-14   -3.48332e-14
    4100         8.2     99.8805    -3.31749    -918.385     315.837    -602.548   -1.81164e-14   -2.60902e-14   -2.60902e-14
    4200         8.4     99.9356     4.21965    -915.871     316.011    -599.859   -1.52933e-14   -3.68594e-14   -3.68594e-14
    4300         8.6     100.199    -2.24835    -915.946     316.845    -599.101   -2.55351e-14   -3.53051e-14   -3.53051e-14
    4400         8.8     99.9441     9.26354    -905.547     316.038    -589.509   -9.88098e-15   -2.91989e-14   -2.91989e-14
    4500           9     100.023     14.7781    -907.971     316.289    -591.683    1.87628e-14   -1.36835e-14   -1.36835e-14
    4600         9.2     99.8765     6.40383    -912.521     315.824    -596.697     2.9754e-14   -3.21965e-14   -3.21965e-14
    4700         9.4     100.081      4.6607    -910.074     316.471    -593.603    3.65263e-14   -2.96707e-14   -2.96707e-14
    4800         9.6     99.8223     14.6421    -900.104     315.653    -584.451     3.0892e-14   -2.44249e-14   -2.44249e-14
    4900         9.8     99.7423     4.01433    -907.726       315.4    -592.326    2.26485e-14   -4.84057e-14   -4.84057e-14
    5000          10     100.041     4.78311     -919.19     316.345    -602.845    2.73115e-14   -5.79536e-14   -5.79536e-14
    5100        10.2     100.004     7.25769    -913.511     316.227    -597.284    4.15223e-14   -5.57332e-14   -5.57332e-14
    5200        10.4     99.8272     2.14544    -910.928     315.669    -595.259    3.36398e-14   -3.41949e-14   -3.41949e-14
    5300        10.6     99.9696   -0.591846    -918.409     316.119     -602.29    3.15512e-14   -4.68514e-14   -4.68514e-14
    5400        10.8     100.099    -1.86905     -917.69      316.53     -601.16    3.74145e-14   -2.08722e-14   -2.08722e-14
    5500          11     99.8742      6.1068    -912.334     315.817    -596.517    2.44249e-14    -2.4647e-14    -2.4647e-14
    5600        11.2     99.9631     -2.7162    -929.855     316.098    -613.756    3.51941e-14    -1.9762e-14    -1.9762e-14
    5700        11.4     100.007     8.81204    -914.765     316.237    -598.527    4.08562e-14   -1.77636e-14   -1.77636e-14
    5800        11.6     99.9847     12.1838    -901.062     316.167    -584.895    3.76088e-14   -3.17246e-14   -3.17246e-14
    5900        11.8      99.895    -4.97465    -929.809     315.883    -613.926    4.81837e-14   -2.78388e-14   -2.78388e-14
    6000          12     99.8085     9.70137    -902.946     315.609    -587.337    5.12923e-14   -4.54879e-14   -4.54879e-14
    6100        12.2     100.158    -3.22028    -913.195     316.715     -596.48    4.39197e-14   -4.03011e-14   -4.03011e-14
    6200        12.4     99.9947    -6.80824    -916.677     316.198    -600.479     5.0876e-14   -2.53131e-14   -2.53131e-14
    6300        12.6     99.9407     8.78772    -895.648     316.027     -579.62     3.5083e-14   -6.99441e-15   -6.99441e-15
    6400        12.8     100.016     8.85417    -896.673     316.267    -580.406    8.32667e-15   -2.17881e-14   -2.17881e-14
    6500          13     100.114     12.3121    -902.704     316.574     -586.13    1.55431e-14   -3.21965e-14   -3.21965e-14
    6600        13.2     99.9749     11.9836    -902.292     316.136    -586.157   -1.69864e-14   -1.65978e-14   -1.65978e-14
    6700        13.4     100.105    -1.66012    -919.524     316.548    -602.976   -1.28786e-14   -5.08482e-14   -5.08482e-14
    6800        13.6     100.012     4.66329    -907.429     316.255    -591.174   -2.08722e-14   -3.30846e-14   -3.30846e-14
    6900        13.8     100.118   -0.647986    -916.005     316.589    -599.416   -1.77636e-14   -3.19744e-14   -3.19744e-14
    7000          14      100.05    -8.04521    -929.341     316.372    -612.969    -1.9984e-14    -2.4647e-14    -2.4647e-14
    7100        14.2     100.119    0.398414    -922.711      316.59    -606.121   -3.86358e-14   -2.42584e-14   -2.42584e-14
    7200        14.4      99.954    -7.88924     -928.72      316.07     -612.65   -3.21965e-14   -2.33147e-14   -2.33147e-14
    7300        14.6      99.856      15.777     -896.37      315.76     -580.61   -5.63369e-14   -2.66454e-14   -2.66454e-14
    7400        14.8     99.8789     4.76913    -904.183     315.832    -588.351   -8.73746e-14   -4.15223e-14   -4.15223e-14
    7500          15     99.9201    -1.55681    -910.382     315.962     -594.42   -7.78266e-14   -5.43454e-14   -5.43454e-14
    7600        15.2     99.9881    -1.36974    -913.356     316.177    -597.178   -5.83977e-14   -3.57492e-14   -3.57492e-14
    7700        15.4     100.015     6.91855    -903.599     316.263    -587.336   -6.52811e-14   -4.66294e-14   -4.66294e-14
    7800        15.6     100.161     5.23532    -906.358     316.724    -589.634   -7.37188e-14   -4.41452e-14   -4.41452e-14
    7900        15.8     99.9545    -16.3507    -931.677     316.071    -615.605   -7.21645e-14   -4.39648e-14   -4.39648e-14
    8000          16     100.046     18.7012    -888.124     316.361    -571.763   -5.55112e-14   -8.35998e-14   -8.35998e-14
    8100        16.2     100.045     2.99088    -904.605     316.358    -588.247   -5.73985e-14   -8.55982e-14   -8.55982e-14
    8200        16.4     99.8322    -5.47522    -918.188     315.684    -602.504   -5.17086e-14   -9.04832e-14   -9.04832e-14
    8300        16.6     99.9344    0.193813    -909.236     316.008    -593.228   -5.90639e-14   -9.07607e-14   -9.07607e-14
    8400        16.8     99.9113     13.4318    -890.859     315.935    -574.924   -7.08322e-14   -8.88178e-14   -8.88178e-14
    8500          17      99.854     20.2797    -889.532     315.753    -573.779   -6.81399e-14   -9.28146e-14   -9.28146e-14
    8600        17.2     100.002     16.4723    -886.217      316.22    -569.997   -5.41789e-14   -7.66054e-14   -7.66054e-14
    8700        17.4     100.072    -4.05496    -915.273     316.444    -598.828   -7.26919e-14   -5.76206e-14   -5.76206e-14
    8800        17.6     100.182     12.5873    -886.706      316.79    -569.916   -6.43929e-14   -8.07687e-14   -8.07687e-14
    8900        17.8     99.8296     13.0124     -888.44     315.676    -572.763   -6.15064e-14   -8.89705e-14   -8.89705e-14
    9000          18     100.102     14.4833    -890.958     316.537    -574.422   -6.55032e-14   -1.02918e-13   -1.02918e-13
    9100        18.2     99.9695    -2.97017    -912.274     316.119    -596.156   -6.08402e-14   -7.72715e-14   -7.72715e-14
    9200        18.4     100.058    -4.25547    -924.053     316.398    -607.654   -6.79456e-14   -9.00391e-14   -9.00391e-14
    9300        18.6      99.917    -7.45409    -923.814     315.952    -607.861   -6.43929e-14   -9.62563e-14   -9.62563e-14
    9400        18.8     99.9614    -8.91528    -929.211     316.093    -613.118   -7.17204e-14   -9.88098e-14   -9.88098e-14
    9500          19     100.017    -5.36878    -930.619     316.269    -614.349   -6.88338e-14   -8.74023e-14   -8.74023e-14
    9600        19.2     100.068    -1.51132    -923.213     316.429    -606.785   -7.67303e-14   -8.70415e-14   -8.70415e-14
    9700        19.4     99.9652     8.72384    -905.499     316.105    -589.394   -7.39409e-14   -8.04495e-14   -8.04495e-14
    9800        19.6     99.8446     4.48467    -911.815     315.724    -596.092   -6.62803e-14    -1.0647e-13    -1.0647e-13
    9900        19.8     99.9693    -6.92893    -928.733     316.118    -612.615   -6.05072e-14   -1.00253e-13   -1.00253e-13
   10000          20     100.137    -5.01535    -931.551     316.648    -614.903    -5.7014e-14     -1.108e-13     -1.108e-13
   10100        20.2     100.048     6.24791    -915.257     316.368    -598.889   -5.55112e-14   -1.07803e-13   -1.07803e-13
   10200        20.4     100.008     8.43273    -911.209     316.241    -594.968   -1.94289e-14   -1.20903e-13   -1.20903e-13
   10300        20.6     100.095     -3.5069    -921.633     316.515    -605.118   -1.13243e-14   -1.11466e-13   -1.11466e-13
   10400        20.8     99.9175     10.8484    -902.958     315.954    -587.004   -1.29063e-14   -1.35447e-13   -1.35447e-13
   10500          21     99.9756    -3.95485    -921.185     316.138    -605.047   -3.66374e-15   -1.26621e-13   -1.26621e-13
   10600        21.2     99.9134     10.3462    -896.794     315.941    -580.853   -2.63817e-14   -1.17323e-13   -1.17323e-13
   10700        21.4     100.051     4.70747    -913.416     316.376     -597.04   -2.19824e-14   -8.95256e-14   -8.95256e-14
   10800        21.6     99.9348     2.70338     -925.51     316.009    -609.501   -4.19664e-14   -8.81517e-14   -8.81517e-14
   10900        21.8     99.8909     4.60185    -911.531      315.87    -595.661   -4.69624e-14   -6.87228e-14   -6.87228e-14
   11000          22     100.022     4.49875    -912.479     316.283    -596.195   -7.84789e-14   -5.10703e-14   -5.10703e-14
   11100        22.2     99.9844    -7.56894    -924.795     316.166    -608.629   -7.70495e-14   -6.52811e-14   -6.52811e-14
   11200        22.4     100.053     8.88642    -912.714     316.384     -596.33   -8.26006e-14   -4.86278e-14   -4.86278e-14
   11300        22.6     99.9345     10.8296    -911.862     316.008    -595.854   -9.21485e-14   -2.22045e-14   -2.22045e-14
   11400        22.8     99.8577   0.0703066     -920.38     315.765    -604.615    -9.4591e-14   -2.32037e-14   -2.32037e-14
   11500          23     99.8705    0.617517    -914.519     315.805    -598.713   -9.68114e-14   -3.40838e-14   -3.40838e-14
   11600        23.2     99.9186    -3.16541    -911.276     315.957    -595.318   -1.08802e-13   -1.95399e-14   -1.95399e-14
   11700        23.4     99.9186     6.23307     -899.24     315.958    -583.282   -1.42109e-13   -1.23235e-14   -1.23235e-14
   11800        23.6     100.037     13.1029    -887.789     316.331    -571.458   -1.49991e-13   -5.55112e-15   -5.55112e-15
   11900        23.8     99.8846   -0.397319    -918.807      315.85    -602.956   -1.16684e-13    1.66533e-15    1.66533e-15
   12000          24     99.8351     7.64837    -909.627     315.694    -593.934   -1.32117e-13   -3.33067e-15   -3.33067e-15
   12100        24.2     100.062     14.4892    -906.565      316.41    -590.155   -1.24178e-13   -2.04281e-14   -2.04281e-14
   12200        24.4     99.9492     2.76533    -906.871     316.054    -590.816   -1.18128e-13   -1.32117e-14   -1.32117e-14
   12300        24.6     99.9452     8.38582    -901.167     316.042    -585.125   -1.05804e-13   -8.04218e-15   -8.04218e-15
   12400        24.8     99.9644    0.704377    -913.961     316.103    -597.858    -1.1402e-13    4.77396e-15    4.77396e-15
   12500          25      99.772     13.9651    -893.601     315.494    -578.108   -1.17906e-13   -2.38143e-14   -2.38143e-14
   12600        25.2     100.161     13.4108    -892.405     316.725     -575.68   -1.30562e-13   -3.40422e-14   -3.40422e-14
   12700        25.4     100.117     -4.4601    -916.866     316.584    -600.282   -9.28146e-14   -3.63216e-14   -3.63216e-14
   12800        25.6     100.019     -0.7327    -919.366     316.274    -603.092   -1.02862e-13   -2.42029e-14   -2.42029e-14
   12900        25.8     99.8985    0.392471    -916.603     315.894    -600.709   -1.07692e-13   -4.51861e-14   -4.51861e-14
   13000          26     100.178     5.35716    -919.245     316.778    -602.467   -1.14131e-13   -6.32827e-14   -6.32827e-14
   13100        26.2     99.9713  -0.0249671     -931.53     316.124    -615.406   -1.32894e-13   -6.13398e-14   -6.13398e-14
   13200        26.4     100.157    -3.98078     -927.23     316.712    -610.518   -1.26121e-13   -5.26523e-14   -5.26523e-14
   13300        26.6     99.9502    -5.48639    -917.729     316.057    -601.672    -1.2737e-13   -7.77156e-14   -7.77156e-14
   13400        26.8     100.105   -0.921034    -905.972     316.547    -589.424   -1.33893e-13   -8.34888e-14   -8.34888e-14
   13500          27     100.042     2.99559    -900.373     316.349    -584.024   -1.62648e-13   -8.92619e-14   -8.92619e-14
   13600        27.2     99.8317  -0.0948034    -902.867     315.683    -587.184   -1.63203e-13   -7.50511e-14   -7.50511e-14
   13700        27.4     100.204    -3.20042    -910.237      316.86    -593.377   -1.59872e-13   -8.07132e-14   -8.07132e-14
   13800        27.6      99.944     4.60989    -898.734     316.038    -582.696   -1.50324e-13     -6.245e-14     -6.245e-14
   13900        27.8     100.059       3.654    -901.908     316.402    -585.506    -1.5965e-13   -5.15143e-14   -5.15143e-14
   14000          28     100.069     9.41072    -911.159     316.433    -594.726   -1.62981e-13   -7.34968e-14   -7.34968e-14
   14100        28.2     99.7681     2.91262    -924.276     315.482    -608.794   -1.42331e-13   -6.67244e-14   -6.67244e-14
   14200        28.4     100.071     10.9737    -909.727     316.441    -593.286   -1.52989e-13   -6.33937e-14   -6.33937e-14
   14300        28.6     99.9572     7.50101    -916.962      316.08    -600.882   -1.45439e-13   -8.63754e-14   -8.63754e-14
   14400        28.8     99.8631     10.7382     -906.97     315.782    -591.188    -1.6237e-13   -7.16788e-14   -7.16788e-14
   14500          29     99.7206     10.6027    -903.096     315.332    -587.765   -1.54765e-13   -5.73985e-14   -5.73985e-14
   14600        29.2     100.273      9.4738    -900.515     317.077    -583.438   -1.77344e-13    -6.0979e-14    -6.0979e-14
   14700        29.4     99.8608     12.6423    -886.654     315.775    -570.879   -1.61648e-13   -5.58997e-14   -5.58997e-14
   14800        29.6     100.005    -11.6686    -922.351      316.23    -606.121   -1.53766e-13   -5.10147e-14   -5.10147e-14
   14900        29.8     100.009     26.1781    -881.845     316.245    -565.601   -1.54265e-13   -6.85008e-14   -6.85008e-14
   15000          30     99.9175    -2.92635    -915.687     315.954    -599.733   -1.62037e-13   -5.21805e-14   -5.21805e-14
   15100        30.2      99.912    0.962315    -913.785     315.937    -597.848   -1.64091e-13   -6.08402e-14   -6.08402e-14
   15200        30.4     100.199     5.08423    -903.334     316.845     -586.49   -1.65451e-13    -6.4615e-14    -6.4615e-14
   15300        30.6     99.9614     8.67321    -896.373     316.093    -580.281   -1.76859e-13   -5.37903e-14   -5.37903e-14
   15400        30.8     100.102      3.1132    -905.615     316.536    -589.078   -1.73417e-13   -7.32747e-14   -7.32747e-14
   15500          31      99.996     6.99612    -906.231     316.202    -590.029   -1.71946e-13   -8.54872e-14   -8.54872e-14
   15600        31.2     99.9948     8.83304    -896.642     316.199    -580.443   -1.70766e-13   -6.26166e-14   -6.26166e-14
   15700        31.4     100.202    -2.67842    -915.589     316.854    -598.735   -1.64632e-13   -4.20775e-14   -4.20775e-14
   15800        31.6     100.084     4.00386    -900.187     316.479    -583.708   -1.62426e-13   -4.30281e-14   -4.30281e-14
   15900        31.8     99.9763     2.22745    -896.652      316.14    -580.512   -1.83187e-13   -2.26451e-14   -2.26451e-14
   16000          32     99.9548    -18.7067    -936.048     316.072    -619.976   -1.62759e-13    -2.4411e-14    -2.4411e-14
   16100        32.2      99.855     2.63726    -911.634     315.756    -595.878   -1.70086e-13   -2.64788e-14   -2.64788e-14
   16200        32.4     99.7974     7.22392    -905.135     315.574     -589.56   -1.58096e-13   -4.41869e-14   -4.41869e-14
   16300        32.6      100.18     10.8984    -896.785     316.783    -580.002   -1.76914e-13   -5.81757e-14   -5.81757e-14
   16400        32.8     99.9118    -1.30935    -910.906     315.936     -594.97    -1.6942e-13   -5.52891e-14   -5.52891e-14
   16500          33     99.8088     -3.4297    -915.391     315.611     -599.78   -1.72085e-13   -6.22835e-14   -6.22835e-14
   16600        33.2     99.8771     7.38503    -909.178     315.826    -593.352   -1.77913e-13   -8.33222e-14   -8.33222e-14
   16700        33.4     99.9752    0.732521    -917.606     316.137    -601.469    -1.7987e-13   -6.59472e-14   -6.59472e-14
   16800        33.6     100.097    -1.98898    -922.159     316.521    -605.638    -1.7682e-13   -7.40519e-14   -7.40519e-14
   16900        33.8     100.041    0.898646    -918.608     316.345    -602.263   -1.71196e-13   -6.86118e-14   -6.86118e-14
   17000          34     99.8263     -9.5531    -928.747     315.666    -613.081   -1.70419e-13   -6.08402e-14   -6.08402e-14
   17100        34.2     99.5876     27.3341    -884.406     314.911    -569.495    -1.7697e-13   -5.33462e-14   -5.33462e-14
   17200        34.4      100.07    0.259452    -908.898     316.437    -592.461   -1.68421e-13   -5.41789e-14   -5.41789e-14
   17300        34.6     100.062    -2.21463    -918.585     316.411    -602.174   -1.59428e-13   -4.86278e-14   -4.86278e-14
   17400        34.8     99.9241    -2.90491    -921.572     315.975    -605.597   -1.65201e-13   -5.04041e-14   -5.04041e-14
   17500          35     99.9834     12.5463    -907.154     316.162    -590.991   -1.57041e-13    -4.9849e-14    -4.9849e-14
   17600        35.2     99.7737     6.19478    -904.941     315.499    -589.441   -1.77469e-13   -5.06262e-14   -5.06262e-14
   17700        35.4     99.9427     8.85861    -899.179     316.034    -583.145   -1.83763e-13   -5.24025e-14   -5.24025e-14
   17800        35.6     100.057     1.78431    -909.497     316.396    -593.101   -1.94456e-13   -5.57332e-14   -5.57332e-14
   17900        35.8     99.9132    -5.73653    -915.742      315.94    -599.802   -1.92513e-13   -5.35127e-14   -5.35127e-14
   18000          36     100.059     4.00534     -912.81     316.403    -596.407   -1.85796e-13    -5.4956e-14    -5.4956e-14
   18100        36.2     100.067     8.46138     -898.92     316.426    -582.493   -2.01394e-13   -5.32907e-14   -5.32907e-14
   18200        36.4     100.065    -3.48262    -918.011      316.42    -601.591   -1.99063e-13   -6.87228e-14   -6.87228e-14
   18300        36.6     99.8569     5.70092    -897.233     315.763     -581.47   -2.07945e-13   -6.40599e-14   -6.40599e-14
   18400        36.8     99.9425    0.790944    -907.801     316.033    -591.768   -1.98064e-13   -5.00711e-14   -5.00711e-14
   18500          37     100.035     4.46625    -913.477     316.327    -597.151   -2.16271e-13   -6.51701e-14   -6.51701e-14
   18600        37.2     100.044     5.24732    -919.918     316.353    -603.565   -2.01617e-13   -5.29576e-14   -5.29576e-14
   18700        37.4     100.175     4.44328    -916.593     316.769    -599.824   -2.00395e-13    -4.2466e-14    -4.2466e-14
   18800        37.6     99.9117      2.0512    -926.828     315.936    -610.892   -2.09832e-13   -3.73035e-14   -3.73035e-14
   18900        37.8     100.008    -1.28808    -926.138     316.242    -609.896   -2.17715e-13   -5.38458e-14   -5.38458e-14
   19000          38     100.033     23.9477    -904.522     316.321    -588.202   -2.20213e-13   -5.44009e-14   -5.44009e-14
   19100        38.2     100.047     -2.5221    -930.813     316.364    -614.449   -2.09055e-13   -6.21725e-14   -6.21725e-14
   19200        38.4     99.8597    -3.88144    -930.112     315.771     -614.34   -2.08139e-13   -6.90559e-14   -6.90559e-14
   19300        38.6     99.6909     14.3614    -916.807     315.237    -601.569   -2.21378e-13   -6.87228e-14   -6.87228e-14
   19400        38.8     100.073     12.6981     -915.93     316.444    -599.486   -2.33702e-13   -9.86988e-14   -9.86988e-14
   19500          39     100.252     4.33669    -916.537     317.012    -599.525   -2.39836e-13   -9.73666e-14   -9.73666e-14
   19600        39.2     99.9042     7.61343    -915.908     315.912    -599.996   -2.42417e-13   -8.68194e-14   -8.68194e-14
   19700        39.4     99.9839   -0.333389    -915.781     316.164    -599.617   -2.43472e-13    -9.4369e-14    -9.4369e-14
   19800        39.6       99.97     2.09482    -914.037      316.12    -597.917   -2.40363e-13   -9.92539e-14   -9.92539e-14
   19900        39.8     99.9448     2.09782    -913.615      316.04    -597.575   -2.39919e-13   -8.07132e-14   -8.07132e-14
   20000          40     99.7803     12.0893    -898.202      315.52    -582.682   -2.33036e-13   -9.63951e-14   -9.63951e-14
   20100        40.2      100.15     12.1057    -915.475     316.689    -598.787   -2.32925e-13   -8.79297e-14   -8.79297e-14
   20200        40.4     99.8884    0.604122    -914.288     315.862    -598.426   -2.31593e-13   -8.43769e-14   -8.43769e-14
   20300        40.6     100.194     20.9462    -896.431     316.828    -579.603   -2.54019e-13   -8.79297e-14   -8.79297e-14
   20400        40.8     99.9549    -8.37195    -924.892     316.072     -608.82   -2.11386e-13   -9.28146e-14   -9.28146e-14
   20500          41     99.9628     1.38915    -912.556     316.097    -596.459   -2.12164e-13   -9.28146e-14   -9.28146e-14
   20600        41.2     99.9848    -6.60103    -921.395     316.167    -605.229   -2.02949e-13   -9.09828e-14   -9.09828e-14
   20700        41.4     99.8608     25.8767    -879.212     315.775    -563.437    -2.2482e-13   -9.52571e-14   -9.52571e-14
   20800        41.6     99.9482     7.40471    -906.838     316.051    -590.787   -2.11831e-13   -7.74936e-14   -7.74936e-14
   20900        41.8     99.9949    -1.62822    -921.848     316.199    -605.649    -2.0256e-13   -7.59393e-14   -7.59393e-14
   21000          42      100.04     13.1762     -893.18      316.34     -576.84   -2.28262e-13   -7.28861e-14   -7.28861e-14
   21100        42.2     99.8836      9.2273      -898.9     315.847    -583.053     -2.367e-13   -7.59393e-14   -7.59393e-14
   21200        42.4     100.228     1.00484    -909.156     316.935     -592.22   -2.35922e-13   -7.70495e-14   -7.70495e-14
   21300        42.6     100.073     9.07461    -895.234     316.447    -578.786   -2.22933e-13   -8.76035e-14   -8.76035e-14
   21400        42.8     99.8173     11.8885    -885.672     315.637    -570.034   -2.27984e-13   -7.14984e-14   -7.14984e-14
   21500          43     99.9904     2.28697    -904.733     316.185    -588.549   -2.24487e-13   -4.99323e-14   -4.99323e-14
   21600        43.2     100.029    -13.2533    -937.937     316.305    -621.632   -1.89959e-13   -6.21725e-14   -6.21725e-14
   21700        43.4     100.003    -3.10188     -920.48     316.226    -604.255   -2.06279e-13   -5.18474e-14   -5.18474e-14
   21800        43.6     100.017     8.28678    -909.867      316.27    -593.597   -2.16382e-13   -4.08562e-14   -4.08562e-14
   21900        43.8     100.015    -3.64701    -922.508     316.263    -606.245   -2.23599e-13   -5.67046e-14   -5.67046e-14
   22000          44     99.9251     7.40988    -900.022     315.978    -584.044   -2.64289e-13   -5.85088e-14   -5.85088e-14
   22100        44.2     100.132     17.0077    -897.091     316.633    -580.459   -2.66058e-13   -6.63636e-14   -6.63636e-14
   22200        44.4     100.043     6.02569    -916.156     316.351    -599.805   -2.55018e-13   -7.61613e-14   -7.61613e-14
   22300        44.6     100.122    -2.14665    -918.756     316.602    -602.154   -2.73143e-13   -7.68274e-14   -7.68274e-14
   22400        44.8     99.9799    -8.00404    -918.663     316.151    -602.512   -2.65787e-13   -1.00614e-13   -1.00614e-13
   22500          45     99.9739     12.3492    -899.328     316.132    -583.196   -2.83773e-13   -8.99281e-14   -8.99281e-14
   22600        45.2     100.121     2.96422    -924.869     316.597    -608.272   -2.75446e-13   -8.36553e-14   -8.36553e-14
   22700        45.4     99.9328     20.2317    -900.133     316.003    -584.131   -2.91239e-13   -9.28146e-14   -9.28146e-14
   22800        45.6     100.085     10.0437    -906.188     316.484    -589.704   -2.86104e-13   -8.44325e-14   -8.44325e-14
   22900        45.8      100.06    -2.23638    -920.517     316.405    -604.112   -3.02258e-13   -9.90319e-14   -9.90319e-14
   23000          46     99.8716     5.31613    -911.517     315.809    -595.708   -2.79374e-13    -8.4821e-14    -8.4821e-14
   23100        46.2     99.9322      6.3504    -905.351     316.001     -589.35   -3.03646e-13   -7.40519e-14   -7.40519e-14
   23200        46.4     100.038     1.04058    -915.366     316.335    -599.032    -2.9729e-13   -7.08322e-14   -7.08322e-14
   23300        46.6      100.01     12.3594     -900.48     316.247    -584.234   -3.03868e-13   -6.88338e-14   -6.88338e-14
   23400        46.8     99.9871     5.23758    -920.352     316.174    -604.178   -2.99316e-13   -5.10703e-14   -5.10703e-14
   23500          47      100.14     4.65168    -901.111     316.658    -584.453   -3.02425e-13   -9.59233e-14   -9.59233e-14
   23600        47.2     100.017     6.83238    -901.947     316.269    -585.678   -3.04201e-13   -8.91232e-14   -8.91232e-14
   23700        47.4     99.9606     1.45715    -922.712      316.09    -606.622    -3.0681e-13   -7.99361e-14   -7.99361e-14