       0           0         100     19.7992           0     316.215     316.215    2.87548e-14    5.55112e-15    5.55112e-15
     100         0.2     100.144      25.194     -861.91      316.67     -545.24   -1.01308e-15    1.33227e-15    1.33227e-15
     200         0.4     100.017     1.13318    -847.279     316.269     -531.01    7.77156e-15    2.39808e-14    2.39808e-14
     300         0.6     99.9259    0.271415    -819.219     315.981    -503.238    1.13243e-14    3.21965e-15    3.21965e-15
     400         0.8     99.9204     3.65293    -798.507     315.963    -482.544    2.24265e-14    9.54792e-15    9.54792e-15
     500           1     99.8696    -6.07237    -813.516     315.803    -497.714    5.68434e-14    4.96825e-15    4.96825e-15
     600         1.2     99.9519    -1.81777     -809.74     316.063    -493.677    5.15959e-14   -1.04361e-14   -1.04361e-14
     700         1.4     100.005      3.9659    -786.853     316.229    -470.624    4.70735e-14   -9.99201e-15   -9.99201e-15
     800         1.6     99.9564     0.01938    -789.497     316.077    -473.419    4.86833e-14   -1.53211e-14   -1.53211e-14
     900         1.8      99.742    -5.99534    -812.071     315.399    -496.672    6.34215e-14   -1.65423e-14   -1.65423e-14
    1000           2     100.142     5.66474    -791.644     316.663    -474.981    5.17364e-14   -1.37668e-14   -1.37668e-14
    1100         2.2     99.9804    -3.49847    -794.626     316.153    -478.473    5.92304e-14   -3.21965e-14   -3.21965e-14
    1200         2.4     100.033    -10.2132    -800.502     316.319    -484.183    6.03961e-14   -4.64628e-14   -4.64628e-14
    1300         2.6     100.051    -16.8349    -799.421     316.377    -483.044    6.06182e-14   -8.40994e-14   -8.40994e-14
    1400         2.8      100.32    -6.05489    -787.783     317.228    -470.555    7.92699e-14   -8.74856e-14   -8.74856e-14
    1500           3     100.063   -0.947229    -789.293     316.415    -472.879    6.91669e-14   -8.50986e-14   -8.50986e-14
    1600         3.2     99.9467    -5.38424    -797.846     316.047      -481.8    6.11733e-14   -8.01581e-14   -8.01581e-14
    1700         3.4     99.7638    -3.52281    -790.454     315.468    -474.986    9.80327e-14   -7.54952e-14   -7.54952e-14
    1800         3.6     100.045    -11.6713    -805.065     316.356    -488.709    1.10911e-13    -9.3564e-14    -9.3564e-14
    1900         3.8     100.052    -4.35313    -800.196     316.379    -483.816    1.02807e-13   -8.12128e-14   -8.12128e-14
    2000           4     99.9388    -4.53421     -798.79     316.022    -482.769    1.01918e-13   -5.61079e-14   -5.61079e-14
    2100         4.2     100.032    -13.0864    -805.452     316.317    -489.134     1.1724e-13   -6.05627e-14   -6.05627e-14
    2200         4.4     100.164    -1.96707    -790.915     316.734    -474.181    1.37446e-13   -6.53921e-14   -6.53921e-14
    2300         4.6     100.131    -3.08144     -796.78     316.631     -480.15    1.19793e-13   -7.58282e-14   -7.58282e-14
    2400         4.8      99.929    -8.71213    -802.398     315.991    -486.407    1.17073e-13   -6.92502e-14   -6.92502e-14
    2500           5      99.927    -1.99079    -791.609     315.984    -475.625    1.26565e-13   -8.12683e-14   -8.12683e-14
    2600         5.2      100.26     6.08402    -778.194     317.036    -461.158    1.19127e-13   -1.04361e-13   -1.04361e-13
    2700         5.4     99.8888    -11.9465    -803.232     315.863    -487.369     1.1402e-13   -8.52096e-14   -8.52096e-14
    2800         5.6     99.9171    -6.76408     -786.98     315.953    -471.027     1.1835e-13   -7.92699e-14   -7.92699e-14
    2900         5.8     100.131      -4.115    -787.164     316.631    -470.533    1.15463e-13   -8.74856e-14   -8.74856e-14
    3000           6     99.8143    0.431598    -778.755     315.628    -463.127    1.11189e-13   -7.74936e-14   -7.74936e-14
    3100         6.2     99.9915     1.55602    -770.939     316.188    -454.751    1.09565e-13   -6.81677e-14   -6.81677e-14
    3200         6.4     100.032    -7.69883    -786.581     316.317    -470.265    9.89486e-14   -5.88418e-14   -5.88418e-14
    3300         6.6     99.9602     6.26361    -779.931     316.089    -463.842    1.01363e-13   -5.75096e-14   -5.75096e-14
    3400         6.8     99.9386    -1.95613    -789.482     316.021    -473.461    1.13576e-13   -6.05072e-14   -6.05072e-14
    3500           7     100.003    -5.14898    -782.911     316.223    -466.688    1.48326e-13   -6.73281e-14   -6.73281e-14
    3600         7.2     99.9978    -7.42798    -783.281     316.208    -467.073    1.65201e-13   -8.19345e-14   -8.19345e-14
    3700         7.4     100.026    0.924441     -778.24     316.297    -461.943    1.66089e-13   -1.11466e-13   -1.11466e-13
    3800         7.6     100.047    -2.35747    -788.099     316.364    -471.735    1.42164e-13   -1.26565e-13   -1.26565e-13
    3900         7.8     99.9627    -3.93651    -795.329     316.097    -479.232    1.33671e-13   -1.32616e-13   -1.32616e-13
    4000           8     100.094    -2.63376    -789.637     316.513    -473.123    1.41276e-13   -1.18024e-13   -1.18024e-13
    4100         8.2     99.8554    -2.01958    -795.466     315.758    -479.709    1.18072e-13   -1.00364e-13   -1.00364e-13
    4200         8.4     99.9931    -5.54581    -794.133     316.193     -477.94    1.54599e-13    -1.0103e-13    -1.0103e-13
    4300         8.6     100.069       7.721    -772.402     316.434    -455.968     1.7053e-13   -1.23013e-13   -1.23013e-13
    4400         8.8         100     20.3807    -755.035     316.216    -438.819     1.7697e-13   -1.35114e-13   -1.35114e-13
    4500           9     99.9507    -4.86433    -790.381     316.059    -474.322    1.90736e-13   -1.07969e-13   -1.07969e-13
    4600         9.2     100.129     9.37212    -766.762     316.624    -450.138    1.79967e-13   -1.06581e-13   -1.06581e-13
    4700         9.4     100.073     1.48202    -784.227     316.446    -467.781    1.76748e-13    -1.2168e-13    -1.2168e-13
    4800         9.6     99.8989    -7.31312    -804.392     315.895    -488.497    1.96732e-13   -1.22818e-13   -1.22818e-13
    4900         9.8     99.9631     -5.9644    -798.319     316.098    -482.221    1.82854e-13    -1.3441e-13    -1.3441e-13
    5000          10     99.9312    -8.03581     -804.51     315.998    -488.513    1.89238e-13   -1.27343e-13   -1.27343e-13
    5100        10.2     99.9515     0.27048    -791.867     316.062    -475.805    1.89848e-13   -1.36502e-13   -1.36502e-13
    5200        10.4     100.117    -1.54698     -794.07     316.584    -477.486    1.95843e-13    -1.4011e-13    -1.4011e-13
    5300        10.6     100.044    -4.06998    -785.079     316.353    -468.726    1.90958e-13   -1.38001e-13   -1.38001e-13
    5400        10.8     100.019     2.72184    -778.491     316.275    -462.216    1.85629e-13    -1.3356e-13    -1.3356e-13
    5500          11     99.9815    -3.53188     -790.72     316.157    -474.563     1.6509e-13   -1.39999e-13   -1.39999e-13
    5600        11.2     100.009     5.61753    -781.885     316.245     -465.64    1.70086e-13   -1.69642e-13   -1.69642e-13
    5700        11.4     100.106     8.47017    -783.672      316.55    -467.121    1.89404e-13   -1.63647e-13   -1.63647e-13
    5800        11.6     99.8574    -1.28617    -793.965     315.764    -478.201    1.63425e-13   -1.52323e-13   -1.52323e-13
    5900        11.8     99.8987      2.2761    -785.186     315.895    -469.291    1.85185e-13    -1.4766e-13    -1.4766e-13
    6000          12     100.068    -4.93877    -795.771      316.43    -479.342    1.70253e-13   -1.48104e-13   -1.48104e-13
    6100        12.2     100.057     1.14577    -781.161     316.396    -464.765    1.58262e-13   -1.53877e-13   -1.53877e-13
    6200        12.4     99.9434    -5.18415    -794.827     316.036    -478.791    1.39437e-13   -1.60039e-13   -1.60039e-13
    6300        12.6     100.054  -0.0193169    -787.331     316.386    -470.945    1.35607e-13   -1.65201e-13   -1.65201e-13
    6400        12.8     99.8395    -3.23135    -790.785     315.708    -475.078    1.44079e-13   -1.57874e-13   -1.57874e-13
    6500          13     100.002    -8.40455    -787.322     316.221    -471.102    1.40998e-13   -1.49214e-13   -1.49214e-13
    6600        13.2     99.7888    -1.85641     -782.27     315.547    -466.723    1.66089e-13   -1.43552e-13   -1.43552e-13
    6700        13.4     99.9322    0.556177    -783.095     316.001    -467.094    1.61871e-13   -1.37668e-13   -1.37668e-13
    6800        13.6     100.081     7.35434    -781.386     316.471    -464.916    1.30784e-13   -1.31006e-13   -1.31006e-13
    6900        13.8     99.9202     6.98524    -779.887     315.963    -463.924    1.39777e-13   -1.50102e-13   -1.50102e-13
    7000          14     100.085    -6.29349    -811.626     316.484    -495.142    1.40776e-13    -1.4122e-13    -1.4122e-13
    7100        14.2     100.058      1.7517    -800.662     316.399    -484.262     1.4766e-13   -1.36224e-13   -1.36224e-13
    7200        14.4     100.016     8.30054    -795.439     316.267    -479.172    1.63425e-13   -1.35114e-13   -1.35114e-13
    7300        14.6     100.102    -1.69103    -814.627     316.538    -498.089     1.5965e-13   -1.26137e-13   -1.26137e-13
    7400        14.8     99.9922     2.90011    -794.215      316.19    -478.024    1.79745e-13   -1.15796e-13   -1.15796e-13
    7500          15      99.956     1.16058    -806.027     316.076    -489.952    1.76303e-13   -1.28286e-13   -1.28286e-13
    7600        15.2     100.029     -2.6285    -800.649     316.308    -484.341    1.75415e-13   -1.30507e-13   -1.30507e-13
    7700        15.4     99.8932     1.19273     -790.91     315.877    -475.033    1.72196e-13   -1.28009e-13   -1.28009e-13
    7800        15.6     100.189   -0.501745    -791.327     316.812    -474.515     1.8785e-13    -1.4333e-13    -1.4333e-13
    7900        15.8     100.058    -1.56602      -781.4     316.399    -465.001    1.89793e-13    -1.4222e-13    -1.4222e-13
    8000          16     99.9059     -1.9541      -781.8     315.917    -465.882    2.09832e-13   -1.46105e-13   -1.46105e-13
    8100        16.2     99.8918     2.74055    -774.987     315.873    -459.114    2.04503e-13   -1.35891e-13   -1.35891e-13
    8200        16.4     99.9751    -2.46417    -786.294     316.136    -470.157    2.12053e-13   -1.38112e-13   -1.38112e-13
    8300        16.6     99.9221     13.4178    -755.665     315.969    -439.697    2.13163e-13   -1.61222e-13   -1.61222e-13
    8400        16.8     100.032     3.80027    -774.636     316.317    -458.319    2.21712e-13   -1.62981e-13   -1.62981e-13
    8500          17     100.003    -5.55126    -791.729     316.226    -475.503    2.08611e-13   -1.40221e-13   -1.40221e-13
    8600        17.2      99.923   -0.911213    -779.648     315.972    -463.677    2.26777e-13    -1.3517e-13    -1.3517e-13
    8700        17.4     99.8652    -2.96049    -775.998     315.789    -460.209    2.23599e-13   -1.13853e-13   -1.13853e-13
    8800        17.6     99.9066     -6.1282    -790.809      315.92    -474.889    2.08417e-13   -1.25011e-13   -1.25011e-13
    8900        17.8     99.9576    -5.27557      -788.2     316.081    -472.119    2.01394e-13   -1.04361e-13   -1.04361e-13
    9000          18     100.074    -2.84769    -780.373     316.449    -463.925    1.90098e-13   -9.59788e-14   -9.59788e-14
    9100        18.2      99.819     3.79293     -774.53     315.643    -458.887    1.96065e-13   -9.28424e-14   -9.28424e-14
    9200        18.4     99.9971    -5.44598    -781.701     316.206    -465.496    1.96176e-13   -7.34968e-14   -7.34968e-14
    9300        18.6      100.13    -12.1431    -793.171     316.625    -476.546    1.95274e-13   -7.09433e-14   -7.09433e-14
    9400        18.8     100.052     -10.581    -777.727     316.379    -461.349    2.17271e-13   -7.57172e-14   -7.57172e-14
    9500          19     100.043     4.72525    -765.742      316.35    -449.392    2.18492e-13    -6.4948e-14    -6.4948e-14
    9600        19.2     100.122    -3.00281    -778.728       316.6    -462.128    1.92957e-13   -5.76206e-14   -5.76206e-14
    9700        19.4      99.941    -9.07733    -775.425     316.028    -459.397    2.00895e-13   -6.83342e-14   -6.83342e-14
    9800        19.6      100.04    -13.6833    -781.649     316.341    -465.308    2.04614e-13   -5.30687e-14   -5.30687e-14
    9900        19.8     99.9014    -2.18639    -763.507     315.903    -447.604     2.1072e-13   -4.51861e-14   -4.51861e-14
   10000          20     100.079    -7.57959    -768.994     316.464     -452.53    2.27707e-13   -5.30687e-14   -5.30687e-14
   10100        20.2         100     -1.4785    -756.545     316.216    -440.329    2.45137e-13   -2.01505e-14   -2.01505e-14
   10200        20.4     100.002       2.266    -758.764     316.223    -442.542    2.50133e-13    -2.4647e-14    -2.4647e-14
   10300        20.6     99.9926    -13.6043    -786.495     316.192    -470.303    2.21712e-13    2.56739e-15    2.56739e-15
   10400        20.8      100.16     3.11428    -756.679      316.72    -439.959    2.23821e-13    9.22873e-15    9.22873e-15
   10500          21     99.8454    -7.49897    -773.003     315.726    -457.277    2.05058e-13   -1.05332e-14   -1.05332e-14
   10600        21.2     99.8496    -3.26754     -774.63     315.739    -458.891    2.15661e-13   -1.72085e-14   -1.72085e-14
   10700        21.4      100.03     -17.328     -787.06      316.31    -470.751    2.06002e-13   -9.99201e-15   -9.99201e-15
   10800        21.6      99.914    -5.52952    -784.543     315.943      -468.6    2.14828e-13    1.44329e-15    1.44329e-15
   10900        21.8     100.148       6.254    -780.278     316.684    -463.594    2.22405e-13   -4.21885e-15   -4.21885e-15
   11000          22     99.9485     7.67827    -771.663     316.052    -455.611    2.18936e-13    3.77476e-15    3.77476e-15
   11100        22.2     100.104    -4.09591     -791.61     316.544    -475.066    2.21489e-13   -2.22045e-15   -2.22045e-15
   11200        22.4     99.8311    -13.8479    -798.685     315.681    -483.004     2.2804e-13    5.77316e-15    5.77316e-15
   11300        22.6      100.03    -13.0411     -801.43     316.311    -485.119    2.22267e-13   -3.44169e-15   -3.44169e-15
   11400        22.8      99.956   0.0242765    -790.581     316.076    -474.506    1.94511e-13    8.43769e-15    8.43769e-15
   11500          23     100.109    -1.72679    -784.625     316.561    -468.064    1.95205e-13    2.55351e-14    2.55351e-14
   11600        23.2     99.8961     3.11974    -779.794     315.887    -463.908    2.04503e-13    1.09357e-14    1.09357e-14
   11700        23.4     100.122    0.451953    -782.285     316.601    -465.684    2.25875e-13   -1.33227e-15   -1.33227e-15
   11800        23.6     99.8758    0.156505    -790.253     315.822    -474.431    2.11775e-13    2.08167e-15    2.08167e-15
   11900        23.8     99.9025    -2.01293    -793.224     315.907    -477.318    1.94053e-13   -5.55112e-16   -5.55112e-16
   12000          24     99.9376      7.7488    -780.219     316.018    -464.201    2.07612e-13    1.15463e-14    1.15463e-14
   12100        24.2     99.9638    -3.44398    -790.451       316.1    -474.351     2.0961e-13    4.21885e-15    4.21885e-15
   12200        24.4     99.9534    -4.30255    -794.603     316.068    -478.536    2.09679e-13    2.22045e-16    2.22045e-16
   12300        24.6     100.006    -2.28973    -795.038     316.235    -478.804     2.0188e-13   -4.88498e-15   -4.88498e-15
   12400        24.8     99.9278     -1.1706    -794.473     315.987    -478.487      1.949e-13   -3.21965e-15   -3.21965e-15
   12500          25     99.8405    -2.22735     -789.65     315.711    -473.939    1.73417e-13   -1.85407e-14   -1.85407e-14
   12600        25.2     100.021     2.73809     -783.62      316.28     -467.34    1.67866e-13   -3.10862e-15   -3.10862e-15
   12700        25.4     99.9337    -2.39456    -798.611     316.005    -482.606    1.54099e-13   -3.55271e-15   -3.55271e-15
   12800        25.6     99.9317    -2.85145    -803.874     315.999    -487.875    1.28786e-13    1.95399e-14    1.95399e-14
   12900        25.8     100.129    -4.37954    -803.167     316.624    -486.543    1.39555e-13    3.33067e-14    3.33067e-14
   13000          26     100.084    -3.39325    -798.961     316.482     -482.48    1.49436e-13    4.33542e-14    4.33542e-14
   13100        26.2     100.223    -3.29789     -799.21     316.919    -482.291    1.29563e-13    3.13638e-14    3.13638e-14
   13200        26.4     100.018    -1.04946    -798.412     316.272     -482.14    1.19904e-13    4.50751e-14    4.50751e-14
   13300        26.6      99.979     9.03045    -785.214     316.149    -469.065    1.28703e-13    5.08482e-14    5.08482e-14
   13400        26.8      100.11     3.13281    -784.879     316.563    -468.316    1.39264e-13    6.81677e-14    6.81677e-14
   13500          27      99.943     1.88224    -781.194     316.035    -465.159    1.49825e-13    6.67244e-14    6.67244e-14
   13600        27.2     99.8895     14.2128    -771.533     315.866    -455.668    1.40873e-13    7.36633e-14    7.36633e-14
   13700        27.4     99.8933    -4.22872    -798.278     315.878    -482.401     1.3059e-13    7.57172e-14    7.57172e-14
   13800        27.6      99.982    -5.80032    -804.746     316.158    -488.588    1.22347e-13    6.81677e-14    6.81677e-14
   13900        27.8     100.085      5.9255    -785.995     316.484    -469.511    1.23901e-13    6.92224e-14    6.92224e-14
   14000          28     100.041     -11.208    -806.718     316.344    -490.374    1.36169e-13     5.9508e-14     5.9508e-14
   14100        28.2     100.123     2.67659    -792.902     316.605    -476.297    1.42331e-13    6.88338e-14    6.88338e-14
   14200        28.4      99.862    -5.38579    -798.347     315.779    -482.568     1.1835e-13    5.86198e-14    5.86198e-14
   14300        28.6     100.048    -4.98202     -779.56     316.366    -463.194    1.27648e-13    6.59472e-14    6.59472e-14
   14400        28.8     99.9757       -11.8    -791.307     316.138    -475.169    1.32783e-13    5.66214e-14    5.66214e-14
   14500          29     100.266     9.41403    -774.306     317.055    -457.251    1.33449e-13    5.87308e-14    5.87308e-14
   14600        29.2     99.9917     -1.6155    -778.624     316.189    -462.435    1.35891e-13    5.24303e-14    5.24303e-14
   14700        29.4     100.108    -3.20937     -777.16     316.558    -460.603    1.20015e-13    4.92384e-14    4.92384e-14
   14800        29.6     100.119      8.1419    -748.658     316.591    -432.067     1.0017e-13    5.75096e-14    5.75096e-14
   14900        29.8     99.9825    -4.89986    -765.551      316.16    -449.391    9.18154e-14    5.38319e-14    5.38319e-14
   15000          30      100.07     -13.567    -789.996     316.435    -473.561    1.00198e-13    4.92939e-14    4.92939e-14
   15100        30.2     100.128    -1.08254    -778.541     316.621     -461.92    8.54872e-14    5.85088e-14    5.85088e-14
   15200        30.4     100.058     1.27323    -782.297     316.399    -465.898    1.09801e-13    3.41949e-14    3.41949e-14
   15300        30.6     99.9985    -3.32991    -793.972      316.21    -477.761    9.59233e-14    2.84217e-14    2.84217e-14
   15400        30.8     100.232    -1.03623    -776.166     316.949    -459.217    8.22675e-14    4.81837e-14    4.81837e-14
   15500          31     100.111    -2.60786    -771.354     316.565    -454.789    8.65558e-14    5.26246e-14    5.26246e-14
   15600        31.2     99.9369     2.90657    -782.201     316.015    -466.185    1.01117e-13    7.28306e-14    7.28306e-14
   15700        31.4     100.013    -11.9034    -791.645     316.257    -475.388    9.83658e-14    8.32112e-14    8.32112e-14
   15800        31.6     99.9329    -6.36398    -771.982     316.003    -455.979    9.66172e-14    9.23706e-14    9.23706e-14
   15900        31.8     100.156    -5.99152    -775.145     316.707    -458.438    9.19265e-14    9.72555e-14    9.72555e-14
   16000          32     100.029    0.297412    -770.828     316.307    -454.522    9.85878e-14    9.41469e-14    9.41469e-14
   16100        32.2     100.176    -11.2851    -782.154     316.771    -465.383    7.39409e-14    7.50511e-14    7.50511e-14
   16200        32.4     100.016    -7.46055    -767.481     316.266    -451.215    7.56062e-14    6.44762e-14    6.44762e-14
   16300        32.6     99.8805    -3.80881    -767.277     315.837     -451.44    6.66134e-14    8.31002e-14    8.31002e-14
   16400        32.8     99.9221     2.90715    -770.959     315.969    -454.991    7.88258e-14    9.10383e-14    9.10383e-14
   16500          33     100.056    -3.56748    -785.566     316.391    -469.176    8.17124e-14    8.90399e-14    8.90399e-14
   16600        33.2     100.013   -0.830923    -788.396     316.255    -472.141    7.98805e-14     9.4369e-14     9.4369e-14
   16700        33.4     100.116      -4.645    -793.326     316.581    -476.745    8.81517e-14    7.91589e-14    7.91589e-14
   16800        33.6     99.9355    -3.26515    -789.871     316.011     -473.86    8.45435e-14       6.95e-14       6.95e-14
   16900        33.8     100.138    -3.59382    -776.402      316.65    -459.753    8.69305e-14    9.05942e-14    9.05942e-14
   17000          34     100.088     1.94108    -784.614     316.492    -468.122    8.10463e-14    9.76996e-14    9.76996e-14
   17100        34.2     99.7309     -5.8869      -790.2     315.364    -474.836    7.83817e-14    1.06359e-13    1.06359e-13
   17200        34.4     99.8805      8.5204    -785.982     315.837    -470.145    8.24896e-14    8.52651e-14    8.52651e-14
   17300        34.6     100.073     5.22151    -788.166     316.447    -471.719    7.18314e-14    9.23706e-14    9.23706e-14
   17400        34.8     99.9015    -5.12704    -810.253     315.903    -494.349     7.4829e-14    9.50351e-14    9.50351e-14
   17500          35     99.8464    -3.63341    -801.671     315.729    -485.942    8.17124e-14    9.08162e-14    9.08162e-14
   17600        35.2     99.9848   -0.398337    -790.085     316.167    -473.918    7.61613e-14    1.05249e-13    1.05249e-13
   17700        35.4      100.06    -4.44472    -797.736     316.405    -481.331    6.63913e-14    8.06022e-14    8.06022e-14
   17800        35.6     99.9913   -0.387038    -799.501     316.187    -483.314    5.77316e-14     7.4829e-14     7.4829e-14
   17900        35.8     99.9197    -12.8559    -813.792     315.961    -497.831    6.18394e-14    5.56222e-14    5.56222e-14
   18000          36     99.9327    -8.93604    -805.695     316.002    -489.693    5.59552e-14    5.79536e-14    5.79536e-14
   18100        36.2     99.9854    -5.13064    -798.701     316.169    -482.532    6.51701e-14    7.37188e-14    7.37188e-14
   18200        36.4      99.952    0.601881    -800.374     316.063    -484.311    6.91114e-14    7.04992e-14    7.04992e-14
   18300        36.6     99.9513      11.904    -788.652     316.061    -472.591    5.90916e-14    7.77677e-14    7.77677e-14
   18400        36.8     100.009      8.9956    -793.667     316.244    -477.422    3.57492e-14    7.84373e-14    7.84373e-14
   18500          37     99.8819    -9.03036    -810.141     315.842      -494.3    3.81917e-14    6.98885e-14    6.98885e-14
   18600        37.2     99.9112    0.192146    -781.534     315.934      -465.6    5.70655e-14    8.21149e-14    8.21149e-14
   18700        37.4     99.9473    -2.31404    -783.243     316.048    -467.195    6.75016e-14    7.87148e-14    7.87148e-14
   18800        37.6     99.7818     5.67844    -765.843     315.525    -450.318    6.78901e-14      8.471e-14      8.471e-14
   18900        37.8     99.9181    -15.7162    -795.696     315.956     -479.74    5.92165e-14    9.83658e-14    9.83658e-14
   19000          38     99.8919    -12.8244     -791.78     315.873    -475.907    9.16767e-14    8.85958e-14    8.85958e-14
   19100        38.2     99.9257   -0.237954     -772.29      315.98     -456.31    9.94482e-14    8.60423e-14    8.60423e-14
   19200        38.4      100.04    -4.82072    -771.336     316.343    -454.993    9.08162e-14    1.00031e-13    1.00031e-13
   19300        38.6     100.043    -1.23024    -778.243     316.352    -461.892    8.43769e-14    9.76996e-14    9.76996e-14
   19400        38.8     100.052     -9.5226    -793.001     316.379    -476.622     8.2101e-14    1.03029e-13    1.03029e-13
   19500          39     99.9731    -3.47766    -778.085      316.13    -461.955    7.68274e-14    1.19682e-13    1.19682e-13
   19600        39.2     100.063     2.53746    -765.655     316.416    -449.239    1.08358e-13    9.23706e-14    9.23706e-14
   19700        39.4       99.99     -9.3924    -786.806     316.183    -470.622    1.22569e-13     8.9484e-14     8.9484e-14
   19800        39.6     99.9219     -2.3147    -787.986     315.968    -472.018    1.47271e-13    7.31637e-14    7.31637e-14
   19900        39.8      99.892     1.24491    -782.406     315.873    -466.532    1.48326e-13    5.19584e-14    5.19584e-14
   20000          40     99.9765    -5.39657    -789.351     316.141    -473.211    1.44496e-13    5.25691e-14    5.25691e-14
   20100        40.2      100.02    -2.79362    -784.574     316.278    -468.295    1.44829e-13    7.79377e-14    7.79377e-14
   20200        40.4     99.8398    -3.54656     -792.29     315.708    -476.582    1.46771e-13    6.30884e-14    6.30884e-14
   20300        40.6     100.005    -4.65106    -787.992     316.231    -471.761    1.51656e-13    7.99916e-14    7.99916e-14
   20400        40.8     99.9505    -2.51645    -776.622     316.059    -460.564    1.54987e-13    8.10463e-14    8.10463e-14
   20500          41     99.8082    -18.1146    -799.713     315.608    -484.105     1.4122e-13    8.34888e-14    8.34888e-14
   20600        41.2     99.8981     5.10434    -778.136     315.893    -462.244    1.36557e-13    1.15574e-13    1.15574e-13
   20700        41.4     99.8142     6.84866    -784.382     315.628    -468.754    1.24456e-13    1.13243e-13    1.13243e-13
   20800        41.6     100.013    -10.0642    -803.853     316.255    -487.597    1.25566e-13    9.20097e-14    9.20097e-14
   20900        41.8     99.8087   -0.547857    -791.802      315.61    -476.192    1.19016e-13    1.25455e-13    1.25455e-13
   21000          42     99.9595    -3.18995    -806.336     316.087    -490.249    1.16719e-13     1.0699e-13     1.0699e-13
   21100        42.2     99.9997       7.289    -794.905     316.214    -478.691    1.35447e-13    1.18017e-13    1.18017e-13
   21200        42.4     99.9602    -1.44923    -797.656     316.089    -481.567    1.43857e-13    1.21125e-13    1.21125e-13
   21300        42.6     99.9503    -4.39403    -796.236     316.058    -480.178    1.56819e-13    1.35891e-13    1.35891e-13
   21400        42.8     100.176    -10.3319     -803.84     316.772    -487.069    1.47882e-13    1.36696e-13    1.36696e-13
   21500          43     100.194    -2.61926    -791.661     316.829    -474.832    1.75193e-13    1.36335e-13    1.36335e-13
   21600        43.2     100.105    -5.99408    -795.198     316.547    -478.651    1.74083e-13    1.26593e-13    1.26593e-13
   21700        43.4     99.9934     8.11593     -791.98     316.194    -475.786    1.65506e-13    1.09412e-13    1.09412e-13
   21800        43.6     99.7894     -3.2848    -809.136     315.549    -493.587     1.5965e-13    1.26787e-13    1.26787e-13
   21900        43.8     99.9673    -1.11466    -802.279     316.112    -486.167     1.7423e-13    1.37224e-13    1.37224e-13
   22000          44     99.9549     5.12802    -783.043     316.072    -466.971      1.803e-13    1.56208e-13    1.56208e-13
   22100        44.2     99.8395    -8.91303    -791.498     315.707    -475.791    1.79745e-13    1.59761e-13    1.59761e-13
   22200        44.4     99.9331    -9.40939    -773.431     316.003    -457.428    1.72917e-13    1.77081e-13    1.77081e-13
   22300        44.6     99.9181     2.93292    -761.914     315.956    -445.958    1.69975e-13     1.7103e-13     1.7103e-13
   22400        44.8     99.9636     6.24816    -770.222       316.1    -454.122    1.68754e-13    1.66867e-13    1.66867e-13
   22500          45     99.7177    -2.36804    -775.426     315.322    -460.104     1.6756e-13    1.47216e-13    1.47216e-13
   22600        45.2      99.836    -17.3565    -798.506     315.697     -482.81    1.66978e-13    1.17906e-13    1.17906e-13
   22700        45.4     99.9658    -5.56462    -791.893     316.107    -475.786    1.36779e-13     1.0314e-13     1.0314e-13
   22800        45.6        99.9     5.99398    -775.954     315.899    -460.055    1.34559e-13    1.03077e-13    1.03077e-13
   22900        45.8     99.7722    -3.71099    -787.223     315.495    -471.728    1.32783e-13    1.06026e-13    1.06026e-13
   23000          46     100.041    -3.58023    -777.524     316.346    -461.178    1.35114e-13    1.07803e-13    1.07803e-13
   23100        46.2     99.9216    -8.18823    -778.969     315.967    -463.002    1.44329e-13    1.26565e-13    1.26565e-13
   23200        46.4     100.073    -10.9454    -785.151     316.446    -468.705    1.34923e-13    1.24567e-13    1.24567e-13
   23300        46.6      99.928    -8.28999    -779.696     315.987    -463.709    1.17795e-13     1.2268e-13     1.2268e-13
   23400        46.8     100.089    -11.4234    -786.717     316.495    -470.222    1.05138e-13    1.24567e-13    1.24567e-13
   23500          47      99.803     3.22564    -772.273     315.592    -456.681    1.11688e-13    1.05596e-13    1.05596e-13
   23600        47.2     100.082      -6.504    -796.019     316.474    -479.545    1.20404e-13    1.15657e-13    1.15657e-13
   23700        47.4     99.9379    -5.55001    -785.267     316.019    -469.248    1.47604e-13     1.2379e-13     1.2379e-13